LAMMPS (29 Oct 2020)
boundary    p p p

variable        ave_time    equal 10.0
variable        step        equal 0.0005
variable        nsnapshots  equal 1000
variable        Temp        equal 0.44

variable        nsteps      equal ${ave_time}/${step}
variable        nsteps      equal 10/${step}
variable        nsteps      equal 10/0.0005
variable        frequency   equal ${nsteps}/${nsnapshots}
variable        frequency   equal 20000/${nsnapshots}
variable        frequency   equal 20000/1000
variable        F_thermo    equal ${frequency}*10
variable        F_thermo    equal 20*10

#если шаг -- 0.01 то 10000 снапшотов, 10000 шагов

units           lj # define units for model
atom_style      atomic # model without bonds

region          box block 0 10 0 10 0 10 # create box by multiplying by 10x10x10 initial unit cell
create_box      1 box # create box
Created orthogonal box = (0.0000000 0.0000000 0.0000000) to (10.000000 10.000000 10.000000)
  1 by 1 by 1 MPI processor grid

read_dump start/start.dump 10000 x y z vx vy vz add yes
Scanning dump file ...
Reading snapshot from dump file ...
  orthogonal box = (0.0000000 0.0000000 0.0000000) to (20.000000 20.000000 20.000000)
  0 atoms before read
  4000 atoms in snapshot
  0 atoms purged
  0 atoms replaced
  0 atoms trimmed
  4000 atoms added
  4000 atoms after read
mass            1 1.0

pair_style      lj/cut 2.5 # force field parameters
pair_coeff      1 1 1.0 1.0 2.5 # force field parameters

reset_timestep  0
timestep        ${step} # MD simulation timestep
timestep        0.0005 

fix             nvt all nvt temp ${Temp} ${Temp} ${Temp}
fix             nvt all nvt temp 0.44 ${Temp} ${Temp}
fix             nvt all nvt temp 0.44 0.44 ${Temp}
fix             nvt all nvt temp 0.44 0.44 0.44

dump dump_1 all custom ${frequency} res_indata/${step}.txt id type xu yu zu vx vy vz
dump dump_1 all custom 20 res_indata/${step}.txt id type xu yu zu vx vy vz
dump dump_1 all custom 20 res_indata/0.0005.txt id type xu yu zu vx vy vz
dump_modify dump_1 sort id

thermo          ${F_thermo}
thermo          200
run             ${nsteps}
run             20000
Neighbor list info ...
  update every 1 steps, delay 10 steps, check yes
  max neighbors/atom: 2000, page size: 100000
  master list distance cutoff = 2.8
  ghost atom cutoff = 2.8
  binsize = 1.4, bins = 15 15 15
  1 neighbor lists, perpetual/occasional/extra = 1 0 0
  (1) pair lj/cut, perpetual
      attributes: half, newton on
      pair build: half/bin/atomonly/newton
      stencil: half/bin/3d/newton
      bin: standard
Per MPI rank memory allocation (min/avg/max) = 5.493 | 5.493 | 5.493 Mbytes
Step Temp E_pair E_mol TotEng Press 
       0   0.44074592   -5.8435134            0   -5.1825598 -0.086056625 
     200   0.44184309   -5.8451026            0   -5.1825036  -0.10419019 
     400   0.44416544    -5.848925            0   -5.1828434  -0.12037595 
     600   0.44023021   -5.8441332            0    -5.183953  -0.12462752 
     800   0.44397407   -5.8511623            0   -5.1853677  -0.14743915 
    1000   0.43924461   -5.8467835            0   -5.1880813  -0.12508559 
    1200   0.44108779   -5.8535623            0    -5.192096  -0.14479057 
    1400   0.44063251   -5.8583407            0   -5.1975572  -0.16309528 
    1600    0.4407193   -5.8645589            0   -5.2036452  -0.18705747 
    1800   0.43874418   -5.8668292            0   -5.2088775  -0.19024684 
    2000   0.43410755    -5.864001            0   -5.2130025  -0.16443539 
    2200   0.43483243   -5.8674749            0   -5.2153893  -0.15319327 
    2400   0.43045326   -5.8626368            0   -5.2171183   -0.1085361 
    2600    0.4342058   -5.8679639            0    -5.216818  -0.10386501 
    2800   0.44373072   -5.8816427            0    -5.216213  -0.13405031 
    3000   0.44027289   -5.8759105            0   -5.2156663 -0.093407524 
    3200   0.44612892   -5.8842725            0   -5.2152464 -0.099223574 
    3400   0.45124687   -5.8915741            0    -5.214873  -0.10905479 
    3600   0.44964438   -5.8909208            0   -5.2166229   -0.1144604 
    3800   0.44648027   -5.8887533            0   -5.2192004  -0.10049978 
    4000   0.44321665   -5.8867265            0   -5.2220677 -0.060604817 
    4200   0.44430988   -5.8917617            0   -5.2254634 -0.057284503 
    4400   0.44003462   -5.8890411            0   -5.2291542 -0.053544811 
    4600   0.43407886    -5.883586            0   -5.2326305 -0.025493644 
    4800   0.44472851   -5.9022278            0   -5.2353018 -0.058959232 
    5000   0.44412233   -5.9037974            0   -5.2377804 -0.067229645 
    5200    0.4449532   -5.9082254            0   -5.2409624 -0.081084317 
    5400   0.43863071   -5.9012969            0   -5.2435153 -0.087250908 
    5600   0.44017114   -5.9045896            0   -5.2444979  -0.12973598 
    5800   0.43586615   -5.8990424            0   -5.2454067  -0.13539595 
    6000   0.43160644   -5.8926123            0   -5.2453645  -0.14421811 
    6200   0.43772353   -5.9007285            0   -5.2443074  -0.18251138 
    6400    0.4298867   -5.8868012            0   -5.2421324  -0.15091177 
    6600   0.43402405   -5.8901636            0   -5.2392903  -0.17640264 
    6800   0.43306018   -5.8849064            0   -5.2354785  -0.16990185 
    7000   0.42959926   -5.8757198            0    -5.231482  -0.15377283 
    7200   0.43671439   -5.8816404            0   -5.2267326  -0.16633161 
    7400   0.43758486   -5.8788341            0   -5.2226209  -0.15416851 
    7600   0.43328224   -5.8691846            0   -5.2194237  -0.10843994 
    7800   0.44777663   -5.8873038            0   -5.2158068  -0.13995443 
    8000   0.43918851   -5.8721546            0   -5.2135365 -0.090761645 
    8200    0.4400748   -5.8715306            0   -5.2115834 -0.089212955 
    8400   0.44379045   -5.8763326            0   -5.2108134  -0.10748858 
    8600    0.4424363   -5.8737785            0     -5.21029  -0.11526027 
    8800   0.43755334   -5.8662526            0   -5.2100867  -0.10234627 
    9000   0.43985415   -5.8695524            0   -5.2099361  -0.11951474 
    9200   0.43844154   -5.8671326            0   -5.2096347  -0.11189427 
    9400   0.43360456   -5.8591416            0   -5.2088974   -0.1121995 
    9600    0.4531684   -5.8877245            0   -5.2081418  -0.20621899 
    9800   0.43972257   -5.8671595            0   -5.2077405  -0.16919542 
   10000   0.43766267    -5.863006            0   -5.2066761  -0.15867329 
   10200   0.43960763   -5.8642562            0   -5.2050096  -0.15399652 
   10400   0.44042553   -5.8632564            0   -5.2027832  -0.16223961 
   10600   0.43776312   -5.8554106            0   -5.1989301  -0.15432383 
   10800     0.444812   -5.8609168            0   -5.1938656  -0.18435132 
   11000   0.44288895   -5.8528515            0   -5.1886842  -0.16645024 
   11200   0.44377631   -5.8509153            0   -5.1854173  -0.17289027 
   11400     0.444222    -5.848878            0   -5.1827116  -0.16411709 
   11600   0.44352165    -5.845796            0   -5.1806798   -0.1344297 
   11800   0.45159712   -5.8564975            0   -5.1792712  -0.14473943 
   12000   0.44988538   -5.8541041            0   -5.1794447  -0.13018467 
   12200    0.4529187     -5.86013            0   -5.1809218  -0.15301627 
   12400   0.44910877   -5.8576613            0   -5.1841665  -0.15436346 
   12600    0.4451984    -5.856732            0   -5.1891014  -0.14912732 
   12800   0.43655847   -5.8490451            0   -5.1943711  -0.10507396 
   13000   0.44459928   -5.8652087            0   -5.1984765  -0.12317128 
   13200   0.44011143   -5.8620836            0   -5.2020815  -0.11527817 
   13400   0.44640497   -5.8737491            0    -5.204309  -0.16294447 
   13600   0.43002364    -5.850544            0   -5.2056698  -0.10370517 
   13800    0.4426516   -5.8693849            0   -5.2055735  -0.15194233 
   14000   0.44255635   -5.8695783            0   -5.2059097  -0.14242969 
   14200   0.43621834    -5.860958            0   -5.2067941  -0.10170906 
   14400   0.43483836   -5.8596294            0   -5.2075349 -0.081589166 
   14600   0.43998363   -5.8676803            0   -5.2078699 -0.085601695 
   14800   0.44421079   -5.8738488            0   -5.2076992 -0.095974495 
   15000   0.44185111   -5.8702671            0   -5.2076561 -0.072977246 
   15200   0.44511928   -5.8762409            0   -5.2087289 -0.088038209 
   15400   0.43605065    -5.864247            0   -5.2103346 -0.062197613 
   15600   0.44682872    -5.881622            0   -5.2115464  -0.11932814 
   15800   0.43644098   -5.8686337            0   -5.2141359  -0.08411762 
   16000   0.43413244   -5.8675264            0   -5.2164905  -0.10286605 
   16200   0.43524313   -5.8715059            0   -5.2188044  -0.12421913 
   16400   0.43757325   -5.8772628            0    -5.221067  -0.14924526 
   16600   0.43635454   -5.8785309            0   -5.2241628  -0.14615736 
   16800   0.43210739   -5.8754687            0   -5.2274696  -0.11802408 
   17000    0.4317649   -5.8779624            0   -5.2304769   -0.1060237 
   17200   0.43866975   -5.8900795            0   -5.2322394  -0.13390433 
   17400   0.44164626   -5.8966168            0    -5.234313  -0.14430391 
   17600   0.43546395   -5.8891777            0   -5.2361451  -0.11460121 
   17800   0.43825843   -5.8955318            0   -5.2383085  -0.11076175 
   18000   0.43716169   -5.8958159            0   -5.2402373 -0.089454698 
   18200   0.43561142   -5.8948471            0   -5.2415933 -0.088126048 
   18400   0.43791583   -5.8985101            0   -5.2418006 -0.090402242 
   18600   0.43900773   -5.9004707            0   -5.2421238 -0.091690402 
   18800   0.43759698   -5.8985829            0   -5.2423516 -0.066634299 
   19000   0.43470483   -5.8937198            0   -5.2418256 -0.047880459 
   19200    0.4366307   -5.8950058            0   -5.2402235 -0.060715905 
   19400   0.44521313   -5.9046351            0   -5.2369823  -0.10097194 
   19600   0.44158458   -5.8961907            0   -5.2339794 -0.088419566 
   19800   0.43867609   -5.8882849            0   -5.2304352 -0.089372431 
   20000   0.43536248   -5.8801312            0   -5.2272508 -0.082299138 
Loop time of 48.2814 on 1 procs for 20000 steps with 4000 atoms

Performance: 17895.094 tau/day, 414.238 timesteps/s
97.9% CPU use with 1 MPI tasks x no OpenMP threads

MPI task timing breakdown:
Section |  min time  |  avg time  |  max time  |%varavg| %total
---------------------------------------------------------------
Pair    | 37.705     | 37.705     | 37.705     |   0.0 | 78.09
Neigh   | 1.0399     | 1.0399     | 1.0399     |   0.0 |  2.15
Comm    | 0.63189    | 0.63189    | 0.63189    |   0.0 |  1.31
Output  | 7.3419     | 7.3419     | 7.3419     |   0.0 | 15.21
Modify  | 1.2652     | 1.2652     | 1.2652     |   0.0 |  2.62
Other   |            | 0.2979     |            |       |  0.62

Nlocal:        4000.00 ave        4000 max        4000 min
Histogram: 1 0 0 0 0 0 0 0 0 0
Nghost:        5726.00 ave        5726 max        5726 min
Histogram: 1 0 0 0 0 0 0 0 0 0
Neighs:       141798.0 ave      141798 max      141798 min
Histogram: 1 0 0 0 0 0 0 0 0 0

Total # of neighbors = 141798
Ave neighs/atom = 35.449500
Neighbor list builds = 194
Dangerous builds = 0

unfix           nvt
Total wall time: 0:00:48
