ITEM: TIMESTEP
10
ITEM: NUMBER OF ATOMS
4000
ITEM: BOX BOUNDS pp pp pp
0.0000000000000000e+00 1.7878070701931353e+01
0.0000000000000000e+00 1.7878070701931353e+01
0.0000000000000000e+00 1.7878070701931353e+01
ITEM: ATOMS id type x y z vx vy vz
1 1 0.107221 0.0298581 0.0117914 1.08958 0.791275 0.296809
4 1 0.00293297 1.03058 0.761365 -0.915191 1.1154 -1.96124
6 1 2.88944 0.969558 0.19393 0.426166 1.30723 -0.62048
7 1 2.5101 0.00627424 0.676073 -1.80161 1.4084 -1.57471
8 1 1.67452 0.650909 0.660651 -1.91813 -0.563505 -0.107447
12 1 3.36567 0.809334 1.00193 0.209233 -1.59263 3.55733
11 1 4.26672 0.268618 1.01994 -2.90044 2.03577 0.887127
10 1 4.51593 0.83088 0.187247 -0.877024 0.975556 2.11006
13 1 5.16873 0.153001 0.100577 -0.845785 0.38918 0.977124
16 1 5.37137 0.877134 0.85412 -0.538751 -1.05682 -0.269656
14 1 6.15039 0.762803 0.210187 -1.08083 -1.39115 2.13633
20 1 7.17401 0.724177 0.856574 -3.06155 1.16288 -1.44409
18 1 8.20908 0.960112 0.171045 1.90269 0.705124 1.88703
19 1 7.95188 0.132603 0.969596 2.18212 -2.23862 0.489808
24 1 8.85484 0.723892 0.958834 -0.251552 -2.1557 0.625093
22 1 9.78829 0.626283 0.123057 -0.823669 -2.52928 0.500344
23 1 10.0879 0.146327 0.908401 1.67053 -0.206414 1.2997
26 1 11.442 0.787518 0.0720879 1.0366 -1.17365 -0.37843
27 1 11.5578 0.149692 1.01608 1.47721 -0.277326 2.06393
28 1 10.8028 0.681523 0.74189 -1.80152 0.222468 -0.498397
29 1 12.6106 0.226576 0.168264 0.592318 0.308634 0.783116
30 1 13.1604 1.02541 0.169093 -1.66308 2.49494 1.78263
32 1 12.2908 0.917833 0.735426 -2.15834 -0.144121 -0.408654
31 1 13.5013 0.196535 0.728883 -2.96915 0.521311 0.948751
33 1 14.2886 0.239704 0.116033 3.23865 2.09519 -2.16696
36 1 14.0545 1.02777 0.71566 -1.88301 4.32391 -1.21266
35 1 15.4422 0.114212 1.04347 3.04905 1.40005 1.79201
37 1 16.1054 0.20278 0.0446133 0.207373 2.53874 0.621561
40 1 16.0549 1.13023 0.949457 -0.465907 2.96639 0.621425
38 1 16.8366 1.09988 0.139633 -0.894057 -0.657394 0.119121
43 1 0.75736 1.5537 1.11109 -0.713736 -2.3511 2.85544
45 1 1.66054 1.8865 0.0613851 -1.67948 1.17268 0.737787
46 1 2.60016 2.92592 0.115572 -1.56126 3.14317 0.869062
47 1 2.82929 1.92871 1.08176 1.4995 1.00303 2.49512
48 1 1.94819 2.58044 1.01069 1.71807 -1.15185 1.11473
52 1 3.41324 2.60379 0.608555 -1.44801 -0.506307 -3.18178
50 1 4.36639 2.58853 0.26741 -0.746504 -1.55717 2.88994
51 1 4.67133 1.65115 1.01944 2.50383 1.81229 -1.26877
53 1 5.26992 2.08044 0.0493368 -0.576288 3.66226 1.06828
56 1 5.30303 2.78419 0.921777 0.176663 0.996612 -0.734242
55 1 5.98945 1.61136 1.02778 -3.49959 0.225913 0.484023
60 1 7.02917 2.43745 0.834167 -1.39034 -2.95156 -0.782858
58 1 8.09945 2.71786 0.194224 0.676496 0.434185 2.46626
59 1 8.29192 1.69668 0.949044 2.54611 -1.0608 -0.104387
63 1 9.8781 1.52201 1.01649 0.511799 -3.3778 1.47576
64 1 9.15768 2.42925 0.829426 2.51711 -2.96785 -0.244933
66 1 11.8724 2.43491 0.14101 1.43805 -0.789247 -1.6194
67 1 11.7946 1.67222 0.675001 0.603837 -2.07294 -0.981783
68 1 10.7739 2.92666 0.598223 2.33989 1.41994 -3.75961
465 1 10.9261 1.94769 1.46963 0.225509 -0.0492203 -5.26841
72 1 12.5444 2.64105 0.782584 2.07824 -0.127651 0.0809392
71 1 13.5453 1.96805 0.894041 -1.29171 2.47498 -3.13454
76 1 14.2323 2.77026 0.628812 -0.981561 -0.635678 -1.91613
74 1 15.1939 2.97206 0.0256562 -0.51212 3.03829 -0.243983
75 1 14.9243 1.83547 0.878824 -3.26665 0.541033 -0.576291
80 1 15.8496 2.53073 0.64746 -1.97561 -4.00814 -2.71418
41 1 17.7542 2.06067 0.170801 -0.817287 2.57421 0.890328
44 1 17.6431 2.81701 0.747373 -1.90516 1.12814 -1.35374
78 1 16.7249 2.75088 0.233609 -2.85273 0.98925 2.31768
79 1 16.9631 1.82688 0.730489 -0.559007 2.53052 0.49468
83 1 1.12958 3.68276 0.845081 2.78535 1.35614 -0.734338
87 1 2.74656 3.61697 0.862587 -1.52405 0.17272 -3.01732
91 1 4.28815 3.49539 0.700715 -0.95719 -0.85798 -1.12326
92 1 3.83329 4.38707 0.922042 2.76991 -0.898831 0.103688
95 1 6.39545 3.69837 1.04948 1.65168 1.53475 1.83466
97 1 7.07569 3.48444 0.0576643 -0.818876 -1.23338 0.734372
100 1 7.20075 4.40753 0.634137 0.641203 -0.62409 -3.10375
99 1 7.84933 3.64581 1.00886 -2.31952 0.718254 1.4323
98 1 8.27044 4.22098 0.00282806 2.39176 -1.94937 0.909891
103 1 9.98433 3.40326 0.86992 0.0624755 -0.970418 0.230707
105 1 10.5801 3.76233 0.0436358 -1.82332 2.77181 0.254094
107 1 11.668 3.58897 0.905152 0.593729 0.204281 0.14074
111 1 13.4753 3.84391 0.784601 0.877345 3.35685 -1.38494
113 1 14.3697 3.51107 0.0744337 -0.743179 0.118951 -0.367855
115 1 15.4465 3.34456 1.00052 2.07354 -1.07338 1.93963
114 1 14.9973 4.20084 0.0919662 -1.04952 -2.00961 0.538055
120 1 16.2692 4.32155 0.778352 2.0523 -1.84186 -1.57668
119 1 17.1713 3.58297 1.07715 1.09179 2.06274 0.296773
82 1 0.630089 4.50319 0.214292 -2.99357 0.486451 2.83224
121 1 0.190853 5.56975 0.176628 3.61078 -0.045259 -0.379686
123 1 1.11631 5.63726 0.945384 2.58371 3.3834 0.509834
88 1 1.7454 4.70342 0.970262 -0.497323 3.05153 0.861248
127 1 2.79942 5.36599 1.06776 -0.561122 -0.110388 -1.15467
131 1 4.19967 5.301 0.768026 -2.44413 -0.305553 -1.0904
96 1 5.32335 4.61845 1.05001 -0.467213 1.90912 1.8815
133 1 5.17929 5.19231 0.00858862 -0.34113 0.66273 1.02863
94 1 6.27225 4.63448 0.114041 -0.318752 0.111452 -0.407952
135 1 6.42683 5.34397 0.713585 1.83371 1.67788 -0.0109478
137 1 7.26235 5.36602 0.185097 0.0820903 -4.45356 0.0933284
139 1 8.30699 5.13866 0.888475 2.88642 -2.49189 -0.283706
102 1 9.74055 4.47498 0.0530772 2.72711 0.138834 2.34164
104 1 9.06386 4.47399 1.0071 1.27045 -0.0751805 0.560068
143 1 9.58632 5.43843 0.674399 -2.0428 1.3443 -1.57982
108 1 10.7141 4.57138 0.860652 -1.3274 -1.49571 2.16324
145 1 10.9019 5.16052 0.114576 0.835073 -0.190386 -2.65179
147 1 11.5129 5.22031 0.865187 0.657416 -0.886585 0.79802
112 1 12.566 4.5056 0.957985 0.568333 0.624665 0.542201
151 1 13.4577 5.23717 0.995214 0.573985 -1.73103 1.13345
116 1 14.3218 4.68491 0.605509 -2.02047 2.34596 -3.37343
155 1 15.048 5.10148 1.16148 -0.802154 -1.95396 3.73735
84 1 17.8013 4.73123 1.02137 -1.02259 3.06468 1.23685
118 1 17.131 4.60833 0.0232032 2.09194 -0.0293028 2.37998
159 1 16.8498 5.61565 0.979695 -1.78979 1.95056 -1.37177
161 1 0.257279 7.12677 0.157886 2.77301 -0.631474 1.72802
163 1 1.02473 7.02739 0.869589 1.60524 -1.8272 0.0259822
126 1 2.70928 5.9745 0.210958 0.426792 -3.50697 2.37226
128 1 1.93609 6.40324 0.83998 1.81391 1.83028 -0.648271
167 1 2.85774 7.09559 0.662936 0.46354 -0.690745 -1.33127
132 1 3.59261 6.14906 0.836489 -0.33657 -1.45029 -1.06244
169 1 3.56322 7.0359 0.0453217 1.54504 -1.60172 -0.897096
171 1 4.21292 6.90767 0.98912 -2.76785 -2.46218 1.27534
136 1 5.40507 6.12198 1.11339 0.151519 -1.60464 2.27699
134 1 6.43945 6.35167 0.204268 2.3019 1.14576 2.45205
140 1 7.35297 6.135 0.7735 2.64436 1.3067 1.42997
175 1 6.37018 7.30051 1.09921 1.26214 1.71334 2.66044
177 1 7.3762 6.94166 0.0692649 2.55019 -2.62972 0.701634
179 1 8.27304 7.16282 0.856747 0.603722 1.4173 1.95099
144 1 8.85655 6.38665 0.766011 -0.322354 -0.754167 -0.826639
181 1 8.73615 7.02239 0.0190732 -1.33271 -1.10419 -2.67835
183 1 9.74048 6.88354 0.696721 -0.819062 -2.6799 -1.80257
148 1 10.723 6.47284 0.660529 0.00451064 2.34851 -2.8332
187 1 11.6115 7.05852 0.768705 -0.833628 -0.487171 -1.52471
152 1 12.3976 6.48196 0.812912 -0.809555 1.54528 -1.14786
189 1 12.4781 7.27332 0.164489 -0.56542 1.75585 1.33119
191 1 13.2697 7.04529 0.786431 -0.550644 -1.31653 -1.97604
156 1 14.4551 6.2689 1.01168 2.37397 -2.4012 -1.11535
193 1 14.1834 7.3948 0.215849 -0.0408858 1.76391 2.65736
160 1 15.9947 6.30527 1.10842 -1.4686 -2.14356 0.0126717
195 1 15.2803 7.08079 1.12916 0.672112 -0.532977 2.88145
124 1 17.6132 6.20178 0.789424 -3.34956 2.42673 1.2465
199 1 17.1602 7.38184 0.618301 2.22159 2.2366 -3.02144
162 1 0.976119 7.8255 0.144889 -2.01396 -2.38025 -1.24657
164 1 0.09126 8.10032 1.12912 0.795252 0.456613 2.02567
203 1 1.01278 8.72171 1.00156 1.43081 -2.56137 1.33927
166 1 2.62874 8.2769 0.06761 -0.85885 1.65945 -0.94265
168 1 1.66095 7.88577 0.813437 1.92547 -1.64225 2.06125
207 1 2.70661 8.7667 0.874109 0.596524 0.800701 -0.10671
172 1 3.41045 8.03614 0.78755 -1.50647 -0.483168 -1.21387
176 1 5.14456 8.19506 0.792375 -2.51179 2.02399 -0.884542
180 1 7.08855 7.97769 0.730051 -0.594938 -2.76105 -0.450942
215 1 6.43164 8.67495 0.854586 0.576522 -2.50473 -1.01526
217 1 7.16905 8.71806 0.117995 0.990246 -0.797402 -0.189777
178 1 7.87142 7.83345 0.168199 -1.27142 -2.15662 1.27574
219 1 7.91267 8.92118 0.72169 -1.0517 -1.94779 -0.557616
221 1 8.85593 8.78506 0.168045 -0.954495 -1.84239 2.07701
182 1 9.94721 7.82098 0.123734 1.52672 -2.7867 1.43908
184 1 9.23689 7.81197 0.990862 3.56737 -2.83997 1.20837
223 1 9.98746 8.71998 0.755297 0.863249 -1.80523 -1.88236
186 1 11.4331 8.18924 0.236605 -2.42295 1.59689 2.68071
188 1 10.648 8.10222 1.10484 -0.0140927 -0.288753 2.94175
227 1 11.5137 8.88843 1.00845 -1.34458 -0.392523 1.64187
192 1 12.4199 8.18188 0.776424 -1.11392 1.71658 -1.43275
190 1 13.4275 7.96272 0.165565 -1.22814 0.246624 1.89375
196 1 14.5061 8.22773 0.822574 1.25207 0.343299 -0.948147
194 1 15.3796 8.18054 0.111224 1.38517 1.01071 1.32294
200 1 15.9879 8.06907 1.02236 -1.31052 0.340967 1.56846
198 1 16.9879 8.14441 0.00918114 0.0532864 1.53694 -0.500776
239 1 17.1246 8.91673 0.695566 1.65085 -0.190858 -2.28041
204 1 0.24874 10.0625 1.0917 3.19519 1.48912 0.848247
205 1 1.98834 9.15429 0.247876 1.96977 2.57797 2.92033
206 1 2.65488 9.9323 0.0682323 -0.130989 1.42382 0.785003
208 1 1.61009 9.95872 1.16689 -1.9452 0.18395 2.79082
212 1 3.51064 9.90265 0.96842 -0.615122 0.867895 0.46398
211 1 4.40809 9.20111 0.831796 -0.883817 2.88616 -0.381327
210 1 4.72914 9.94916 0.229551 2.36543 1.43158 0.799752
216 1 5.34645 10.099 0.940268 1.63457 3.48459 1.26506
220 1 7.23007 9.67562 0.68922 -0.147993 -1.57014 -2.05411
218 1 8.12752 9.7395 0.247773 1.7371 0.221186 1.35257
224 1 8.75871 9.88228 1.03353 -1.98944 0.628186 2.06558
222 1 9.8201 9.62174 0.133113 -0.882024 -1.23996 2.87448
226 1 11.393 9.74306 0.121824 -2.41077 -1.20503 1.2401
228 1 10.6568 9.84539 0.796251 -0.95529 -0.0726239 -0.954285
232 1 12.3289 9.68628 1.00556 -2.03597 -2.20781 1.30241
231 1 13.6154 9.12937 0.792886 0.329211 2.35596 1.95805
236 1 14.4346 9.78264 0.636559 -2.60263 2.26081 -2.78034
234 1 15.2455 9.8144 0.0841378 1.59445 0.0593892 -0.278868
235 1 14.9937 9.00827 0.763423 1.22036 -0.751537 -1.16919
240 1 16.116 9.56686 0.601887 0.550182 -2.98258 -3.17307
242 1 1.01568 11.6927 0.0187468 -3.02646 -0.646466 -2.09298
243 1 1.03557 10.7149 1.00613 1.40629 -3.20224 -1.31339
246 1 2.85473 11.5258 0.0558625 0.399352 -2.24248 0.71296
247 1 2.78008 10.9673 1.14485 0.906046 2.67025 2.99603
248 1 1.63068 11.5031 0.750647 1.40175 -1.62849 1.32539
249 1 3.46213 10.7537 0.157204 -0.928678 -0.159953 2.08898
252 1 3.34089 11.8277 1.09539 -2.5722 2.75126 2.47022
250 1 4.46049 11.8417 0.128898 -0.548335 2.16141 0.640963
251 1 4.34806 10.5268 0.972178 -2.53601 0.174677 -1.18508
253 1 5.50472 10.9599 0.222625 0.23943 2.32882 2.13901
256 1 5.10452 11.8268 0.889785 -2.57755 2.54323 0.580054
255 1 6.02914 11.017 1.03953 -2.1357 3.79226 2.74972
257 1 7.14034 10.9496 0.0985314 -0.425226 1.78215 0.385032
260 1 7.01395 11.7316 0.861691 -2.55628 -1.08012 1.0058
259 1 7.85029 10.9651 0.712769 -1.10533 2.82634 -0.97751
263 1 10.0774 10.6551 1.09195 2.24483 0.256942 0.734012
264 1 8.96721 11.912 0.986371 0.288013 3.62983 1.18282
265 1 10.9715 10.8608 0.12125 1.18823 0.205502 1.95108
267 1 11.7515 10.518 1.08656 1.03683 -2.21207 2.11127
268 1 10.7666 11.5405 1.06789 0.971357 -1.35893 2.0683
269 1 12.5323 10.6798 0.0831328 0.227017 -0.606822 0.96602
272 1 12.2492 11.5329 0.672525 -1.53522 -2.28523 -2.27849
270 1 13.6457 11.4432 0.0372978 2.38817 -1.30871 0.678295
271 1 13.632 10.6831 0.947815 2.98348 -1.55965 -0.168029
276 1 14.4648 11.8143 1.15321 -0.967413 -0.683307 3.74502
275 1 15.0025 10.4619 1.02499 -1.67485 -1.67612 0.78743
277 1 16.1674 10.6722 0.123254 -0.691383 -1.01065 0.893133
280 1 16.0863 11.7505 0.962309 -0.135725 1.57654 1.00387
244 1 17.6313 11.6451 1.00568 -2.02049 -1.43783 1.49472
278 1 16.7776 11.4428 0.221643 -1.83644 -0.671045 1.79693
279 1 16.7969 10.7612 0.865086 1.07488 -0.361273 -2.24635
283 1 0.769868 12.6181 0.698107 -1.84897 0.26756 -1.76432
287 1 2.5562 12.5656 0.955391 -1.55145 0.464529 0.555072
289 1 3.41036 12.2878 0.0157805 -0.757691 -1.12611 0.116008
291 1 4.43598 12.6824 0.659474 -0.607618 1.4287 -0.854574
293 1 5.45204 12.6635 0.0322926 0.0971857 0.838247 0.319438
296 1 5.37514 13.1848 1.14556 -0.419631 -2.55745 2.17993
294 1 6.15441 13.3032 0.170272 -0.425992 -0.360912 2.32329
295 1 6.18298 12.3458 0.858619 -1.26845 -1.76203 -0.761318
297 1 7.38744 12.285 0.166453 1.63704 -1.90984 -1.809
299 1 8.06773 12.6066 0.756598 2.39084 1.91203 0.0991016
302 1 9.93118 13.3363 0.227253 1.15663 -0.82102 2.67958
303 1 10.1082 12.2922 1.04266 2.8995 -2.41858 1.60389
306 1 11.5717 13.4084 0.0840138 -0.610103 0.0444122 1.05111
307 1 11.7119 12.2586 0.988822 0.0173616 -1.79441 1.5438
308 1 10.697 13.2259 0.992058 -0.269068 -1.97108 0.911879
311 1 13.1216 12.3286 0.616124 -3.03985 -2.55078 -3.2927
312 1 12.7548 13.3994 0.859282 2.79647 -0.0470271 -0.429411
316 1 14.5073 13.153 0.798576 1.08482 -1.84844 -1.08047
315 1 15.1365 12.4733 0.991042 3.48254 1.16405 0.984086
319 1 17.1829 12.482 0.970533 1.45269 1.30606 0.865391
282 1 1.09602 13.4332 0.262085 2.72584 0.868683 1.81142
284 1 0.179756 13.6089 1.08659 1.92357 1.17148 2.43385
321 1 0.0717772 14.257 0.150729 1.01752 -0.462563 1.93289
323 1 0.959108 14.1523 0.952734 -0.360792 1.62967 0.545925
286 1 2.68549 13.6891 0.158001 -1.41458 3.46577 0.729125
288 1 1.59875 13.4964 1.1954 -0.32641 -1.05439 4.50359
327 1 2.76777 14.5261 0.798496 1.3001 2.71448 -0.955617
292 1 3.35516 13.5157 0.804108 -1.20199 0.782246 0.311158
329 1 3.7564 14.1149 0.0678743 1.89171 -2.08455 0.992335
331 1 4.34654 14.4462 0.924321 2.07717 2.37977 -3.64234
333 1 5.1403 14.1892 0.269659 -2.7777 -1.49663 3.40926
300 1 7.0562 13.6912 0.653899 -1.29614 3.25545 -2.55573
335 1 6.06983 14.2942 0.949001 0.0953366 -2.76207 0.311561
337 1 6.95816 14.5715 0.147787 -1.28982 2.27085 2.03545
339 1 8.09673 14.4941 0.848037 -3.82361 -0.51866 -2.49939
304 1 8.96485 13.5822 0.857878 0.331879 2.29601 -0.480611
343 1 10.0336 14.3798 0.828062 2.06866 -1.47973 -1.32858
347 1 11.4891 14.5744 0.629854 -0.659045 2.52901 -3.22874
351 1 13.1661 14.5296 0.930257 -2.95449 2.68957 0.703022
310 1 13.5642 13.4321 0.165869 1.99472 0.321394 1.94422
353 1 14.4058 14.1843 0.0600351 1.03547 -1.43662 0.411214
320 1 16.2056 13.625 1.14868 1.23927 3.51866 2.8123
355 1 15.0257 14.1857 0.873229 -1.4657 -1.51732 -0.262269
357 1 15.8408 14.3955 0.0763383 -2.98766 0.8119 0.700766
359 1 17.1896 14.0624 1.00704 1.90426 -2.41628 1.3699
322 1 0.700519 15.2248 0.0641006 0.575904 -1.68698 -0.405726
324 1 0.229741 15.2824 0.890852 1.39883 0.914117 1.98161
363 1 1.11841 15.816 1.03583 1.63464 -3.96266 0.473156
326 1 2.62691 15.2794 0.0456325 0.540497 -1.07797 -0.363363
328 1 1.91484 15.1427 0.693659 0.652674 -1.08453 -1.33593
365 1 1.91587 15.9846 0.113942 -1.33364 0.669869 0.772079
367 1 2.67065 16.0517 0.669957 2.02766 0.703424 -0.366388
332 1 3.47123 15.3701 0.6195 -0.872574 1.07101 -2.42793
371 1 4.33645 16.0329 0.777088 -1.65904 -0.607505 -1.44223
336 1 5.48804 15.0414 0.988135 -0.3183 1.51887 0.673703
340 1 7.14061 15.4207 0.66469 -4.59479 0.888203 -1.32609
375 1 6.27769 15.8354 0.879853 -0.160508 -2.82054 -0.0404831
338 1 7.90014 15.3022 0.0823668 0.56949 0.822227 -1.41514
379 1 7.89191 16.0326 0.862594 2.54279 1.61182 -1.95476
344 1 8.79328 15.1529 0.677123 0.991874 2.20173 -3.33355
342 1 9.83468 15.1089 0.183374 -2.20551 1.07485 1.56531
381 1 9.04588 16.1359 0.136665 0.729885 0.417303 1.09131
383 1 9.7876 16.0594 0.786538 -0.043525 -0.438692 -0.821377
348 1 10.7051 15.1174 0.654753 0.0485039 0.360693 -2.07317
385 1 10.5692 15.9177 0.0092004 -2.03251 -1.87113 -0.152591
387 1 11.4486 16.1522 0.619967 -0.353732 -1.19352 -3.34582
350 1 13.2706 15.1615 0.106378 -0.598816 0.953371 1.38525
352 1 12.3335 15.3067 1.00693 0.753635 0.882486 -2.05123
391 1 13.5984 15.9411 0.696753 -1.39431 -0.564713 -3.04286
356 1 14.1413 15.1801 0.894151 1.17659 -3.31137 -0.998804
354 1 15.1297 15.1763 0.161967 -0.720336 -0.393805 2.09779
360 1 16.1043 15.2067 0.693077 -0.474278 -2.13516 0.176705
395 1 15.0243 16.3057 0.776757 -1.91273 2.38223 -1.4003
397 1 16.1726 15.9307 0.103036 0.846462 0.371784 -0.521812
358 1 17.0152 15.0696 0.255595 0.946411 -1.64344 2.88151
399 1 17.1222 16.3071 1.18523 1.57056 2.64079 3.43629
3 1 0.836206 17.6314 1.00828 -0.202429 -2.49362 0.13677
364 1 0.017146 17.1105 0.637132 0.409328 1.0348 -2.6389
366 1 2.82751 17.0893 0.195739 -0.229088 -1.52477 1.28022
368 1 1.93783 17.0242 0.655019 1.11638 0.110443 -2.68755
372 1 3.60602 17.0941 0.792943 1.26633 1.1436 -0.21876
376 1 5.52442 16.9581 0.759246 0.0282512 -0.402589 -4.39824
15 1 6.38918 17.761 0.62513 -0.60206 0.624509 -3.88477
380 1 6.99218 17.1449 1.14675 0.489341 -1.93546 2.98201
21 1 8.91089 17.7512 0.0425381 -0.393028 -1.56053 0.531442
384 1 8.72756 16.7353 0.931214 -2.73475 -2.3306 -0.355609
382 1 9.9292 17.266 0.0034741 0.596652 2.71595 1.94505
782 1 9.7427 17.2556 1.48592 -1.6433 2.83651 -3.65282
388 1 10.8751 16.897 0.667361 0.00123631 0.969246 -2.58778
392 1 12.3267 16.9334 0.985164 -1.53226 -0.713011 0.107775
396 1 14.0636 16.7354 0.715993 -1.62212 -0.8065 -1.94642
394 1 15.1147 17.1773 0.166961 -1.03148 2.56315 2.04217
400 1 16.2202 16.8777 0.666509 0.879219 -1.66056 -2.61832
39 1 16.8208 17.6534 0.975771 -1.80692 -2.25603 1.46762
398 1 17.0445 17.1284 0.119474 0.680807 1.65474 0.415979
402 1 1.066 0.741222 1.98908 1.97358 -1.61926 1.93181
403 1 1.15234 0.0831812 2.76473 1.1486 0.489947 -0.88552
404 1 0.112895 0.665222 2.43029 1.32837 -2.77338 -2.84033
406 1 2.67917 0.930401 1.66087 -0.925384 0.545651 -0.667822
407 1 2.64772 0.199876 2.87321 -0.143222 1.9596 1.90453
408 1 1.90426 0.820559 2.58104 1.43914 -0.340112 -1.27731
412 1 3.59277 0.958523 2.87389 0.05481 0.564816 1.54646
410 1 4.61363 0.905558 1.6306 1.01129 -2.97164 1.37952
411 1 4.5962 0.0921283 2.47012 1.24668 1.2216 -2.38996
416 1 5.43846 1.02281 2.87317 -2.32337 0.957676 -0.153223
414 1 6.45331 0.944237 1.55686 2.61127 -0.27413 -1.43533
415 1 6.23854 0.147287 2.53108 2.02422 2.23067 0.052212
417 1 6.91443 0.102377 1.62161 -2.72713 1.97606 -0.292105
420 1 7.12462 1.06221 2.90303 -0.935868 2.13117 2.48673
418 1 8.1342 0.811133 1.65581 0.773895 -0.0697455 -0.36134
424 1 8.79099 0.770144 2.59052 -1.80782 -1.35693 -1.21222
422 1 9.95679 0.710559 1.83156 0.929931 -1.91194 0.336079
423 1 9.89052 0.0102973 2.80828 -1.86578 0.274136 -0.616961
426 1 11.8027 0.852707 1.76348 2.34224 -0.324444 -0.107408
427 1 11.5538 0.0920216 2.61763 -1.13144 0.655306 -1.18536
428 1 10.5339 0.804966 2.71641 -1.87606 -0.88662 0.632405
432 1 12.3238 0.787921 2.88701 1.15806 -1.30613 0.166486
430 1 13.5866 0.96813 1.92959 2.63324 -0.294701 0.747327
436 1 14.487 0.952192 2.93619 1.37634 0.874402 1.98728
434 1 15.0234 0.988819 1.95535 -2.1058 1.15769 2.11049
440 1 16.1014 0.902475 2.70094 0.0796031 0.132116 0.227051
438 1 17.1389 0.88883 1.76824 1.86444 0.0283319 -0.317987
442 1 0.730125 2.55435 1.68695 -1.97985 -1.45204 -1.18525
443 1 1.12044 1.7921 2.74785 2.85929 0.0119329 0.792416
444 1 0.0339967 2.81002 2.65805 -0.135699 -0.964465 -3.32894
445 1 1.92521 1.77739 1.96963 0.924304 -0.993553 2.22827
446 1 2.49458 2.55771 1.8709 -1.28443 -0.520344 1.49577
447 1 2.71319 1.54596 2.61976 0.252656 -1.53198 -2.88393
448 1 1.95433 2.55355 2.85707 1.98353 -1.40347 1.87029
449 1 3.85091 2.03652 1.79475 4.02721 1.49633 -2.2671
452 1 3.51219 2.53374 2.54186 -1.62446 -0.326093 0.405543
451 1 4.34441 1.57789 2.65437 -1.19645 -2.32198 -0.0992835
450 1 4.58793 2.93722 1.55078 -0.5938 2.48027 -2.16161
453 1 5.21954 1.53885 2.07925 -0.705274 -1.83413 3.41494
456 1 5.16726 2.95426 2.66146 -2.5733 2.71368 0.769388
454 1 6.51652 2.42765 1.80233 2.64638 -3.3753 -0.413118
455 1 6.2047 1.77195 2.93796 0.190473 0.889911 2.14737
457 1 7.43734 1.76486 1.78449 3.26105 -0.882963 0.0533669
460 1 7.04863 2.85226 2.55513 2.40948 -1.25777 0.112647
458 1 7.92033 2.61343 1.54806 -1.2028 -0.291377 -3.06497
459 1 7.93516 1.80009 2.86933 -1.3012 0.324794 2.16083
461 1 8.69045 1.75042 1.83983 -2.84529 -0.968709 1.05329
462 1 10.0428 2.7278 2.04314 2.02788 0.901552 2.58638
463 1 9.77409 1.60769 2.39982 -0.726183 -2.20524 -3.47754
464 1 9.07821 2.42848 2.45739 1.7239 -2.57522 -2.1852
466 1 11.6187 2.49789 1.95929 4.58242 -0.0994414 1.40715
467 1 11.6858 1.57001 2.85438 -1.25227 -2.64201 0.243039
468 1 10.8405 2.38556 2.51552 -0.243237 -4.0101 0.494099
469 1 12.6629 1.71149 1.80208 -1.10113 -0.8764 -2.9116
471 1 13.3136 1.68807 2.52456 1.04294 -1.54766 3.08686
472 1 12.7327 2.9272 2.58871 2.21988 2.61255 -1.03049
470 1 13.5391 2.49708 2.01381 -1.73042 0.484021 0.51572
473 1 14.1945 1.863 1.60023 2.64666 -0.790734 0.0925913
476 1 14.3411 2.40781 2.53155 2.80504 -3.36903 -0.110731
474 1 15.0764 2.52484 1.68714 -1.42114 -1.83911 -1.1967
475 1 15.1459 1.84365 2.92291 -0.425097 0.579547 2.99125
477 1 16.2453 1.86384 1.85675 1.38246 -2.85403 -3.17418
480 1 16.3625 2.55082 2.59588 1.81122 0.119392 2.36094
441 1 17.8739 1.77412 1.82189 -0.194562 -0.278345 0.427634
478 1 16.8609 2.82983 1.60051 -0.976688 -0.256544 -1.64143
479 1 17.1406 1.90278 2.59286 2.47768 0.982146 -0.977511
483 1 1.03955 3.34705 2.53326 1.71884 -2.85347 -1.85069
484 1 0.301417 4.40294 2.46709 4.01973 -3.91658 0.252511
485 1 1.88452 3.84428 1.58429 1.40405 3.09542 -2.57356
487 1 2.89639 3.55396 2.70925 1.2233 -1.6697 0.742826
488 1 1.7299 4.21023 2.55753 -0.659341 -2.97521 -1.2154
489 1 3.34271 3.76045 1.56587 -0.701848 1.61273 -0.55646
491 1 4.43309 3.70542 2.82043 -0.0467756 -0.914709 -1.55877
492 1 3.51271 4.2091 2.39223 0.51123 -1.5204 -2.83676
493 1 5.41509 3.4023 1.82164 1.97194 -0.751921 -0.144247
495 1 6.23104 3.39574 2.57582 -3.99755 0.0248719 -0.603369
497 1 6.98566 3.59944 1.92181 -1.29605 1.69043 0.0189809
499 1 8.12213 3.51745 2.5309 0.5005 -0.966659 -1.88228
504 1 8.87689 4.22405 2.52993 2.19835 -4.03426 1.29981
501 1 9.10807 3.45801 1.49902 1.81583 -1.75306 -3.53913
503 1 9.89273 3.73819 2.91407 0.507746 2.16709 2.54019
502 1 9.60281 4.32672 1.813 -1.81169 -1.5865 0.887417
505 1 10.8081 3.60342 1.72201 0.973561 -0.324925 -1.58397
507 1 11.7922 3.44204 2.80676 1.98401 -1.58737 1.56425
508 1 10.7923 4.26041 2.44599 0.491881 -2.11097 -1.85534
509 1 12.6071 3.77102 1.7233 1.18531 2.24919 -0.647791
511 1 13.6203 3.38752 2.53176 3.09604 -3.16872 -0.836602
513 1 14.452 3.56899 1.78466 2.06638 -0.321025 -0.147062
510 1 13.6345 4.20624 2.0424 2.66106 -1.72539 2.33158
515 1 15.426 3.62064 2.91543 -0.140014 0.969018 0.226334
517 1 16.1093 3.36996 1.91468 -0.763529 -1.70179 1.77468
514 1 15.4517 4.24792 1.57063 3.29863 -3.13761 -2.49737
481 1 17.8781 3.60265 1.74163 0.90931 0.337858 0.254651
519 1 16.761 3.31501 2.78929 0.0923457 -0.561388 -0.909812
518 1 16.9214 4.34889 1.61213 -0.887199 -0.725915 -1.43311
482 1 0.980765 4.54953 1.75037 1.60433 1.02225 -1.10072
521 1 0.0141967 5.16752 1.93337 -1.03566 0.688694 -0.450448
523 1 0.802211 5.4313 2.53171 -2.77025 0.847645 0.135357
486 1 2.8332 4.67349 1.73774 1.49786 1.68554 0.109002
525 1 1.53064 5.52061 1.9514 -1.07498 2.10485 0.322206
527 1 2.5605 5.51825 2.48242 -1.48556 1.91565 -2.48775
529 1 3.48743 5.58171 1.74128 3.602 0.55625 1.85109
490 1 4.40965 4.59202 2.06367 -0.429416 1.63484 3.2339
531 1 4.3293 5.47939 2.91612 -1.75063 1.25892 2.82382
496 1 5.45565 4.55126 2.55133 1.19962 0.464684 -2.09733
533 1 5.59904 5.56245 2.00649 1.52387 0.266055 2.44159
494 1 6.37077 4.57272 1.95587 1.43935 0.213367 1.1488
500 1 7.35433 4.47448 2.57548 2.48641 0.100996 -1.19644
535 1 6.41521 5.31586 2.56236 2.36207 0.354806 -0.179065
537 1 7.19681 5.54034 1.82884 0.260924 1.83083 0.411934
498 1 8.23025 4.63523 1.88715 -0.53058 3.27616 -1.69837
539 1 7.89834 5.50708 2.84986 -1.17435 -0.106821 -0.413437
541 1 9.08338 5.52414 1.602 1.75882 1.95772 -2.13713
543 1 10.0754 5.60252 2.69662 2.40191 1.65114 -3.76981
506 1 11.3509 4.74047 1.73602 -2.92488 2.88944 -1.08509
545 1 10.4968 5.38343 1.73936 -2.52989 -0.212556 -0.716792
547 1 11.4068 5.31723 2.55992 -2.99154 0.0625901 -1.16893
512 1 12.2667 4.76585 2.73832 -1.43715 3.53658 -1.53767
549 1 12.6824 5.49056 1.89447 0.29734 -0.0936218 1.89591
551 1 13.549 5.2532 2.78272 1.06914 -0.961784 0.123514
516 1 14.4271 4.64627 2.82684 1.62868 2.02176 1.77992
553 1 14.4252 5.59589 1.98968 -1.12354 1.64051 1.47027
520 1 15.8811 4.63866 2.48383 -2.05079 1.64293 -2.1874
555 1 15.2099 5.36297 2.49228 1.20104 0.0617882 -1.32254
557 1 16.2592 5.26959 1.65518 0.959257 -1.64711 -0.47051
559 1 16.6973 5.36132 2.84997 -3.68031 1.3946 0.63826
522 1 0.603926 6.37611 1.83674 -3.74009 -1.27544 -2.0682
524 1 0.01062 6.20335 2.83175 -0.223841 -2.61185 0.399033
561 1 0.158659 7.30432 2.04158 -1.82033 2.19109 2.23812
563 1 0.86945 6.90778 2.62904 2.50866 -1.61794 3.1024
526 1 2.76939 6.23831 1.64156 -1.53099 2.83906 -1.73723
528 1 1.68325 6.29603 2.74397 -1.14954 0.359471 0.843084
565 1 1.76308 7.43677 1.82464 0.374634 3.10916 0.563665
567 1 2.52415 7.27371 2.80694 -1.08116 1.83379 0.26875
532 1 3.65038 6.22709 2.67211 0.662252 -0.12599 -0.106211
569 1 3.59412 7.33676 1.81208 0.0243216 1.30764 -0.63524
530 1 4.59631 6.52114 2.0753 1.37004 3.18849 3.25622
536 1 5.49125 6.37358 2.54975 -2.59625 -1.13096 1.3418
571 1 4.61726 7.3165 2.74365 -0.264792 0.274163 1.68418
573 1 5.48026 7.20291 1.88318 -0.612709 0.66537 -2.18364
534 1 6.13813 6.33852 1.78078 1.5931 1.71707 -2.37245
540 1 7.14897 6.47271 2.90418 -0.964111 2.05267 0.560894
575 1 6.23968 7.06785 2.52385 4.74304 1.95349 0.431347
577 1 7.31251 7.38835 1.72796 2.03089 3.01398 -0.728339
538 1 7.88836 6.2434 2.08957 -1.55408 0.330381 3.79007
579 1 8.19106 7.24784 2.87744 1.80927 1.15085 2.37978
581 1 8.82676 7.37388 1.996 -1.91165 2.31867 1.98707
542 1 9.9856 6.23663 1.80718 -1.13063 -2.35333 -0.184107
544 1 9.16145 6.34603 2.48303 2.37039 0.988499 -2.61545
583 1 9.66848 7.25087 2.51443 -0.712239 -0.00437939 -1.18727
546 1 11.7963 6.22683 1.635 1.94072 -0.436033 -1.75261
548 1 10.75 6.4394 2.4302 1.38701 1.22421 -1.03003
585 1 10.5317 7.01625 1.66581 -0.906327 1.99101 -3.24737
587 1 11.6543 6.97891 2.8087 -0.309621 0.145517 -0.602274
550 1 13.3514 6.10185 1.60138 1.14144 0.0600579 -2.73361
552 1 12.326 6.28623 2.59108 -1.60728 -0.191817 -1.18069
589 1 12.7474 7.07587 1.60441 2.18906 -0.838156 -1.36334
591 1 13.3272 7.13686 2.47264 -0.904409 -0.224657 -2.42892
556 1 14.2222 6.50419 2.44458 -1.82062 1.79744 -0.422015
593 1 14.1975 6.94983 1.61528 -2.23944 1.38143 -1.80428
554 1 15.0558 6.31135 1.87045 0.283352 1.74053 0.80556
560 1 15.9496 6.05126 2.89289 -1.89988 -2.34318 2.5713
595 1 14.952 7.1923 2.52702 -2.05128 -0.264943 -1.87575
597 1 16.1437 6.93088 1.79998 1.09497 -0.230318 2.91901
558 1 17.267 6.054 1.75835 3.95814 -1.65179 1.32569
599 1 17.0381 7.35049 2.8967 0.630491 2.1094 2.51293
562 1 0.880031 7.83364 1.67957 1.10813 -1.11584 -1.63774
601 1 0.0591041 8.81415 1.85509 0.851453 -1.16368 0.971211
603 1 0.753028 8.84218 2.77446 -0.789622 -1.18723 0.400087
566 1 2.63035 8.15225 1.58248 0.796117 -1.8139 -0.928409
568 1 1.66927 8.10939 2.7243 -0.977241 0.924604 0.14415
605 1 1.96685 8.82004 1.69164 0.601044 0.0467546 -0.94908
607 1 2.77478 8.78179 2.61205 1.14079 -1.92356 -0.946087
572 1 3.62876 8.01168 2.49421 0.642976 0.07894 -0.972163
609 1 3.61747 8.71332 1.77268 0.417294 -2.45497 -0.640696
570 1 4.52707 7.85325 1.872 0.683633 -2.2679 0.521821
576 1 5.37233 7.86739 2.58253 2.17508 0.447251 -0.335159
613 1 5.10428 8.72342 2.00857 -3.08587 -2.43521 2.70897
574 1 6.30918 8.28305 1.86096 -0.147246 1.94427 1.31092
580 1 7.34025 8.30534 2.49396 1.2457 2.57041 -2.54029
578 1 8.3082 8.19719 1.6666 2.66956 1.50039 -1.76073
619 1 8.18645 8.74732 2.6535 2.40369 -1.71604 0.302167
582 1 9.65357 8.10424 1.9826 -0.00607323 1.45525 -1.19098
584 1 9.10794 8.08183 2.77576 -0.629827 1.11261 4.30655
586 1 11.4173 8.31156 2.01881 -1.2409 3.34103 2.35006
588 1 10.6947 7.99674 2.62946 -0.933405 -1.63007 0.700859
625 1 10.5159 8.70668 1.97984 -0.81508 -2.40053 -0.29696
592 1 12.3698 8.23627 2.76827 1.12659 2.50971 -2.84949
629 1 12.5178 8.91126 1.91116 0.452166 -0.696821 1.45781
590 1 13.4746 8.14425 1.86157 0.548938 0.991058 0.967065
596 1 14.4851 8.05512 2.57632 -1.81149 0.00127106 1.64153
633 1 14.3247 8.70782 1.74825 -0.0309702 -1.71075 -0.554357
594 1 15.0503 8.00637 1.78581 1.06776 -1.09694 -3.19767
600 1 16.2304 8.2335 2.65145 1.84174 1.84937 -1.00316
635 1 15.155 8.72678 2.75618 0.601563 -1.5197 1.17772
564 1 17.6495 8.1753 2.63585 -3.08587 -0.687664 -2.78894
598 1 16.9759 8.03581 1.49832 -0.16287 0.0224018 -3.32978
602 1 0.760719 10.0626 1.93199 0.74007 1.7175 -2.47329
604 1 0.199923 9.80305 2.6978 -0.323894 -1.2715 3.27939
606 1 2.90657 9.67488 1.73934 2.25319 -2.13211 -0.298167
608 1 1.65288 9.96287 2.64308 -1.51387 1.20694 -0.110533
612 1 3.40811 9.84415 2.65179 0.914242 -3.3529 -2.09219
610 1 4.71004 10.0023 1.709 2.83572 -0.549143 2.03677
611 1 4.48728 9.17041 2.91065 -1.85997 1.75509 2.57316
616 1 5.30339 9.61388 2.66045 0.467407 -1.37621 -0.608659
614 1 6.4076 9.74688 1.65587 -0.864947 2.55909 -1.6134
615 1 6.06189 8.97692 2.91188 -2.02854 -0.0106905 2.67571
617 1 6.96852 8.95779 1.63872 1.97181 -2.3363 -1.36462
620 1 7.36144 10.0862 2.71003 1.30495 0.894901 -0.187004
618 1 7.92124 10.0111 1.9585 -0.48666 2.02199 0.889028
621 1 8.78374 9.04053 1.9294 -0.920545 2.02915 1.37969
624 1 8.87622 10.0828 2.88583 -0.917587 1.37239 1.04284
622 1 9.88494 9.92874 1.69958 0.399989 0.181714 -0.19773
623 1 9.80441 9.03644 2.52443 -2.73727 2.1545 0.122525
626 1 11.7822 9.56905 2.07717 1.61124 -2.81555 3.57477
627 1 11.4746 8.95626 2.94138 0.190154 -2.86932 3.1
628 1 10.9043 9.70124 2.89583 0.118228 0.666233 2.29709
632 1 12.7859 10.0652 2.6119 3.29101 2.19599 -2.25105
630 1 13.5523 9.87687 1.90084 -0.283469 0.761055 -1.38438
631 1 13.4867 9.08635 2.6456 0.413791 -0.330327 -1.79551
636 1 14.1477 9.8475 2.62988 1.33373 0.861422 1.44924