ITEM: TIMESTEP
0
ITEM: NUMBER OF ATOMS
4000
ITEM: BOX BOUNDS pp pp pp
0.0000000000000000e+00 2.0000000000000000e+01
0.0000000000000000e+00 2.0000000000000000e+01
0.0000000000000000e+00 2.0000000000000000e+01
ITEM: ATOMS id type x y z vx vy vz
1 1 0 0 0 1.1087 0.233604 0.0980598
2 1 1 1 0 -1.85044 0.929038 -1.30119
3 1 1 0 1 -0.704781 -2.63658 1.45106
4 1 0 1 1 0.23542 1.4856 -1.26263
5 1 2 0 0 -0.167796 1.18291 0.00112902
6 1 3 1 0 2.66752 0.701757 2.69869
7 1 3 0 1 -1.80299 -0.253626 -2.46436
8 1 2 1 1 -1.02952 -3.00153 -2.99642
9 1 4 0 0 -0.789752 -2.83221 -1.00518
10 1 5 1 0 0.75367 -0.994962 1.92324
11 1 5 0 1 -1.96985 2.90415 1.385
12 1 4 1 1 -2.81282 -0.73117 0.455872
13 1 6 0 0 -2.28239 1.82593 1.05714
14 1 7 1 0 -1.10934 -1.31354 2.18593
15 1 7 0 1 2.16912 -1.99386 -2.44269
16 1 6 1 1 0.198252 -0.00402727 -0.450275
17 1 8 0 0 -2.81366 -2.77076 -2.87928
18 1 9 1 0 1.64981 0.70602 1.74144
19 1 9 0 1 -2.04295 2.50308 0.830487
20 1 8 1 1 1.35764 -2.73928 -0.163925
21 1 10 0 0 -0.274861 -1.27297 0.430063
22 1 11 1 0 -0.432994 -2.84538 1.43609
23 1 11 0 1 2.75723 1.82659 -0.0451687
24 1 10 1 1 -0.994523 -1.69487 0.666297
25 1 12 0 0 0.842247 -0.709397 -2.69125
26 1 13 1 0 -2.52412 -1.10769 1.05965
27 1 13 0 1 -1.2373 2.08118 1.10806
28 1 12 1 1 1.61936 -2.76062 -1.86159
29 1 14 0 0 1.13441 2.7591 1.95811
30 1 15 1 0 -2.80011 1.08654 1.79858
31 1 15 0 1 2.30799 2.50107 -2.64767
32 1 14 1 1 -2.28861 0.187406 -1.8945
33 1 16 0 0 -1.24446 2.65545 2.3669
34 1 17 1 0 0.301986 0.918531 -2.43355
35 1 17 0 1 2.45875 1.14952 1.51316
36 1 16 1 1 -2.8221 0.534794 -2.07225
37 1 18 0 0 0.141493 2.01994 0.418108
38 1 19 1 0 -1.68977 2.78357 1.7969
39 1 19 0 1 -1.69296 -2.35151 0.739306
40 1 18 1 1 -0.353485 2.3515 0.598126
41 1 0 2 0 -1.36973 2.8761 1.93989
42 1 1 3 0 -0.507182 2.72569 -2.92087
43 1 1 2 1 -1.56301 -2.45582 2.15181
44 1 0 3 1 -2.57976 1.53454 -1.56726
45 1 2 2 0 -1.2316 1.00835 0.620125
46 1 3 3 0 -0.716361 2.39114 1.25674
47 1 3 2 1 1.56634 1.58694 1.84354
48 1 2 3 1 1.63566 -1.04252 1.20922
49 1 4 2 0 1.52539 -2.91584 -2.92336
50 1 5 3 0 -1.14207 -0.86315 2.80692
51 1 5 2 1 2.01394 -2.35215 2.08994
52 1 4 3 1 -1.77423 -0.931892 -2.95684
53 1 6 2 0 -1.06301 2.93469 0.385208
54 1 7 3 0 2.01295 -0.82739 -1.22678
55 1 7 2 1 -2.62571 -2.34965 1.68752
56 1 6 3 1 -0.757479 1.08538 0.509928
57 1 8 2 0 -1.33912 2.9867 -2.73607
58 1 9 3 0 0.541352 0.358993 1.93287
59 1 9 2 1 2.57455 -0.922676 0.680932
60 1 8 3 1 -1.26133 -2.47866 -0.596838
61 1 10 2 0 2.50563 2.56885 -0.964342
62 1 11 3 0 -2.64115 -1.64024 -0.725118
63 1 11 2 1 0.478534 -2.63623 1.25354
64 1 10 3 1 2.25441 -2.57408 -0.817281
65 1 12 2 0 0.413527 -0.067429 -1.15661
66 1 13 3 0 2.88978 -2.9627 2.16216
67 1 13 2 1 1.97119 -0.844031 -2.59317
68 1 12 3 1 0.0717016 2.83729 -2.97648
69 1 14 2 0 1.66778 0.260877 -1.36056
70 1 15 3 0 -0.249248 -0.381351 -1.21821
71 1 15 2 1 2.21111 1.76437 0.900961
72 1 14 3 1 -0.085454 -0.462362 -1.41023
73 1 16 2 0 -0.149556 -0.837163 -2.11761
74 1 17 3 0 0.113472 3.01209 0.424167
75 1 17 2 1 -2.71303 0.467593 -0.069272
76 1 16 3 1 -0.716071 1.22378 -2.92868
77 1 18 2 0 0.213632 -1.67879 -1.24046
78 1 19 3 0 -2.65865 0.699223 2.47055
79 1 19 2 1 -0.140512 -0.0955716 -2.21102
80 1 18 3 1 -2.74119 -0.999549 -2.57433
81 1 0 4 0 2.11842 -1.05954 -0.35667
82 1 1 5 0 -2.71412 0.310404 2.11574
83 1 1 4 1 2.39286 1.05221 -0.459513
84 1 0 5 1 -0.759545 2.65719 1.32939
85 1 2 4 0 0.469111 2.35347 -2.73129
86 1 3 5 0 2.11826 2.26136 -1.76475
87 1 3 4 1 1.1728 0.494614 0.289304
88 1 2 5 1 -0.416848 2.30579 0.757396
89 1 4 4 0 1.16014 -0.383795 0.0572595
90 1 5 5 0 2.17574 0.323853 -1.76422
91 1 5 4 1 -2.05071 -0.813765 -2.15166
92 1 4 5 1 2.70631 -0.887055 0.367372
93 1 6 4 0 -1.28827 -1.56325 -1.54557
94 1 7 5 0 0.247334 2.04808 1.53645
95 1 7 4 1 1.37588 1.22693 1.55794
96 1 6 5 1 -0.413658 1.46345 1.58996
97 1 8 4 0 -0.790355 -0.868683 0.560545
98 1 9 5 0 2.30876 -2.6824 -0.151787
99 1 9 4 1 -1.97933 0.735145 1.15839
100 1 8 5 1 0.491611 -0.669793 -2.6193
101 1 10 4 0 2.70111 2.47781 -0.346537
102 1 11 5 0 -1.83717 0.216689 0.181446
103 1 11 4 1 1.95492 -2.02973 -0.34347
104 1 10 5 1 1.31821 0.0623173 1.31236
105 1 12 4 0 -1.45368 1.74238 0.511209
106 1 13 5 0 2.03838 2.97273 -1.63663
107 1 13 4 1 0.476178 0.120926 0.113299
108 1 12 5 1 0.151559 1.79521 -1.0469
109 1 14 4 0 1.47153 -0.651293 -0.255113
110 1 15 5 0 -2.09405 2.79387 -0.570668
111 1 15 4 1 0.652729 2.66604 -1.07683
112 1 14 5 1 0.53019 0.322921 0.714182
113 1 16 4 0 0.922159 -0.844897 0.998747
114 1 17 5 0 -2.33379 -2.88644 1.12901
115 1 17 4 1 2.80879 -2.79573 0.938816
116 1 16 5 1 0.845669 2.34913 -2.94831
117 1 18 4 0 -2.93034 2.52519 -2.67553
118 1 19 5 0 1.43603 1.74558 -0.19798
119 1 19 4 1 2.17066 -0.416784 2.26007
120 1 18 5 1 1.83544 -1.48114 -1.14157
121 1 0 6 0 1.56786 2.9647 2.65855
122 1 1 7 0 1.19873 0.757277 -2.00696
123 1 1 6 1 2.28137 2.75434 0.547656
124 1 0 7 1 -2.55259 -1.55247 -1.91104
125 1 2 6 0 -1.06458 0.723839 -1.30293
126 1 3 7 0 0.244884 -2.81942 2.14667
127 1 3 6 1 1.76749 0.112437 2.65173
128 1 2 7 1 1.49001 1.45936 -0.532477
129 1 4 6 0 1.18134 -1.13804 -0.717513
130 1 5 7 0 1.24166 2.15273 -0.33364
131 1 5 6 1 -2.88302 -0.711476 -1.31625
132 1 4 7 1 0.285667 -1.0887 -0.480846
133 1 6 6 0 -2.32548 -2.3584 -0.120243
134 1 7 7 0 1.78338 0.945079 2.07466
135 1 7 6 1 1.74333 -0.598134 -2.28463
136 1 6 7 1 0.480048 -1.3877 2.27049
137 1 8 6 0 1.53356 1.30582 2.49023
138 1 9 7 0 -2.09546 -2.77571 -1.44786
139 1 9 6 1 2.69002 -2.30223 0.00252899
140 1 8 7 1 1.99488 -2.03019 -2.03682
141 1 10 6 0 2.71522 -2.38907 -1.3016
142 1 11 7 0 -1.60273 1.42402 -1.58966
143 1 11 6 1 -2.70365 0.678771 -2.44348
144 1 10 7 1 -1.00763 1.82975 -1.4353
145 1 12 6 0 2.08196 -2.69162 2.20998
146 1 13 7 0 1.03452 -0.0915354 -0.930438
147 1 13 6 1 -1.55936 -1.64635 -0.58259
148 1 12 7 1 -0.0572137 2.23469 -2.34808
149 1 14 6 0 -0.944829 -1.45883 -1.28043
150 1 15 7 0 -2.84623 0.356239 -2.00455
151 1 15 6 1 0.497698 -1.22505 1.04237
152 1 14 7 1 -1.29847 2.4821 -0.773003
153 1 16 6 0 0.385837 0.432528 -2.51776
154 1 17 7 0 -2.99133 0.129463 -1.60653
155 1 17 6 1 -1.8298 -3.01667 2.58224
156 1 16 7 1 1.44245 0.727622 1.78211
157 1 18 6 0 -2.19661 -2.63382 -0.589322
158 1 19 7 0 1.77078 0.905629 -1.45494
159 1 19 6 1 -1.35461 2.89191 1.46899
160 1 18 7 1 -0.916235 1.14384 2.76123
161 1 0 8 0 2.63543 -0.183182 1.63474
162 1 1 9 0 1.69139 -2.23622 2.26868
163 1 1 8 1 1.31886 -1.19237 -0.319011
164 1 0 9 1 0.960765 0.609228 2.54254
165 1 2 8 0 -0.371963 0.367047 -1.85809
166 1 3 9 0 -0.481271 2.58841 1.02601
167 1 3 8 1 2.08785 -0.549193 -2.60843
168 1 2 9 1 -2.23436 -1.68421 -1.66837
169 1 4 8 0 -0.463131 -1.10987 0.727184
170 1 5 9 0 1.63563 -1.63122 -0.471504
171 1 5 8 1 -2.62141 -2.54337 0.935062
172 1 4 9 1 -1.75078 -0.00802607 -1.10267
173 1 6 8 0 1.93579 -2.96979 -2.13226
174 1 7 9 0 1.95083 1.72317 -1.74963
175 1 7 8 1 1.14514 1.52611 2.02403
176 1 6 9 1 -2.24569 1.45141 -1.12209
177 1 8 8 0 2.3016 -2.09771 0.733815
178 1 9 9 0 -1.88591 -2.22292 1.84973
179 1 9 8 1 2.85071 -0.162816 -0.945146
180 1 8 9 1 -0.677642 -0.297877 -1.97592
181 1 10 8 0 -2.36034 -1.39966 0.862513
182 1 11 9 0 1.11107 -2.25284 1.24759
183 1 11 8 1 -0.98415 -2.81823 -2.09836
184 1 10 9 1 3.0151 -2.33061 0.97059
185 1 12 8 0 2.42122 -0.402978 -1.66773
186 1 13 9 0 -1.85401 1.4779 2.41008
187 1 13 8 1 0.0318709 -1.04339 -1.22776
188 1 12 9 1 -0.993656 0.775158 2.05618
189 1 14 8 0 -0.352834 1.19526 1.79271
190 1 15 9 0 0.460627 -1.07886 1.69071
191 1 15 8 1 -1.60972 -1.05525 -0.965683
192 1 14 9 1 -0.9641 1.38228 -1.16587
193 1 16 8 0 -1.45038 2.681 2.16792
194 1 17 9 0 2.00085 1.4681 1.14042
195 1 17 8 1 0.941962 -0.779658 2.34289
196 1 16 9 1 2.26693 2.13291 -0.682621
197 1 18 8 0 0.767962 -2.81389 -1.68634
198 1 19 9 0 0.0323483 0.931287 0.194755
199 1 19 8 1 1.76763 2.42366 -2.81572
200 1 18 9 1 -1.02357 0.222876 1.30278
201 1 0 10 0 0.939116 -0.208512 -0.541438
202 1 1 11 0 1.84051 -0.927787 -0.518796
203 1 1 10 1 1.19676 -2.18409 1.07715
204 1 0 11 1 2.43652 2.58416 2.29717
205 1 2 10 0 2.10997 2.18602 2.51734
206 1 3 11 0 -0.301368 0.960476 0.695059
207 1 3 10 1 0.197033 -2.33104 -0.228816
208 1 2 11 1 -1.80469 1.49664 2.85502
209 1 4 10 0 -0.21785 0.937314 -1.37046
210 1 5 11 0 2.77951 1.14491 2.69444
211 1 5 10 1 -0.600785 2.67867 -0.705389
212 1 4 11 1 -0.711423 0.691566 0.830681
213 1 6 10 0 -1.43318 1.29472 -2.56256
214 1 7 11 0 0.324931 -0.678074 -2.63446
215 1 7 10 1 2.0492 -2.78176 -0.217581
216 1 6 11 1 -0.541028 2.62833 0.346928
217 1 8 10 0 -0.0171852 -2.6607 1.50472
218 1 9 11 0 0.674095 -1.25302 2.87547
219 1 9 10 1 -1.41597 0.217995 -2.07436
220 1 8 11 1 1.02075 -1.63888 -2.17743
221 1 10 10 0 -0.859877 -1.57313 1.69117
222 1 11 11 0 0.0429502 -2.39756 1.09259
223 1 11 10 1 1.76806 -2.38367 -1.36749
224 1 10 11 1 -1.83823 0.496477 1.34217
225 1 12 10 0 -2.64499 0.36058 -1.6494
226 1 13 11 0 -2.34519 -0.879443 1.24182
227 1 13 10 1 -1.06538 -0.560132 1.10072
228 1 12 11 1 -0.698853 0.175939 -1.00016
229 1 14 10 0 0.420854 2.0591 -0.855954
230 1 15 11 0 -2.14857 0.0758584 -1.02091
231 1 15 10 1 2.68703 1.91324 -1.85097
232 1 14 11 1 -1.8999 -1.39497 1.14236
233 1 16 10 0 -2.74393 1.39859 0.537024
234 1 17 11 0 0.267357 -0.25161 1.17187
235 1 17 10 1 -2.99125 1.39631 -1.42232
236 1 16 11 1 2.46112 -1.40132 -2.73068
237 1 18 10 0 0.323785 -1.78565 -0.228041
238 1 19 11 0 -0.885198 2.44281 -1.61138
239 1 19 10 1 1.44527 -0.208239 -2.01357
240 1 18 11 1 0.213209 -2.73945 -3.01157
241 1 0 12 0 -1.22133 -1.76703 -1.89534
242 1 1 13 0 2.64919 1.21069 0.982055
243 1 1 12 1 1.49501 0.806104 1.81844
244 1 0 13 1 -2.6943 0.586461 1.07741
245 1 2 12 0 0.670179 -0.521137 -2.99877
246 1 3 13 0 2.07812 -0.733324 0.553989
247 1 3 12 1 1.03288 2.46502 2.537
248 1 2 13 1 -2.61232 -1.12122 -2.41901
249 1 4 12 0 -1.21904 0.334849 1.53024
250 1 5 13 0 -0.0006894 2.31124 1.47511
251 1 5 12 1 -0.967228 -2.78238 1.43038
252 1 4 13 1 -2.41089 2.04235 2.02067
253 1 6 12 0 1.77483 2.50893 2.32876
254 1 7 13 0 0.722953 -2.97806 -1.86397
255 1 7 12 1 -2.42093 2.83754 1.28168
256 1 6 13 1 -2.73381 2.06022 -0.175794
257 1 8 12 0 -0.0780812 2.4437 1.15978
258 1 9 13 0 -0.499906 -2.0432 -2.79419
259 1 9 12 1 -2.15887 2.43235 -2.03453
260 1 8 13 1 -1.19088 1.76823 -0.723064
261 1 10 12 0 -1.30195 -1.56209 -0.268234
262 1 11 13 0 1.24717 -2.00536 -2.11063
263 1 11 12 1 2.59146 -0.948859 2.30678
264 1 10 13 1 0.313265 2.91276 0.906536
265 1 12 12 0 2.8483 1.67834 1.13969
266 1 13 13 0 0.672206 -2.75447 -1.29458
267 1 13 12 1 1.44156 -2.17143 2.01158
268 1 12 13 1 0.304048 -0.727853 1.75669
269 1 14 12 0 0.176264 -0.479868 0.852515
270 1 15 13 0 2.49421 -1.94401 0.3431
271 1 15 12 1 2.19767 -0.252357 0.714307
272 1 14 13 1 -3.02305 -0.611814 -2.28655
273 1 16 12 0 -1.57012 -1.07971 -0.647019
274 1 17 13 0 0.125959 1.11559 -0.0358751
275 1 17 12 1 -2.11023 -2.98218 1.48359
276 1 16 13 1 2.44445 2.77605 2.47242
277 1 18 12 0 1.07842 -0.490279 1.33679
278 1 19 13 0 -2.20738 -1.99573 2.31415
279 1 19 12 1 -2.83543 0.410029 0.529085
280 1 18 13 1 -0.0428688 1.31003 0.644209
281 1 0 14 0 -1.32345 0.245443 -0.599388
282 1 1 15 0 2.00185 0.108135 2.95361
283 1 1 14 1 -1.19235 1.25803 -2.12003
284 1 0 15 1 1.8281 2.25942 1.91063
285 1 2 14 0 -2.22395 -2.20339 -2.67452
286 1 3 15 0 0.307859 2.81742 1.83077
287 1 3 14 1 -1.28311 0.539275 0.642706
288 1 2 15 1 -2.37385 1.371 2.86032
289 1 4 14 0 -1.92553 -2.6057 0.16984
290 1 5 15 0 0.515636 -2.26268 -0.854405
291 1 5 14 1 -0.314276 1.83363 -2.72293
292 1 4 15 1 -2.49591 1.17132 -1.18264
293 1 6 14 0 1.09079 1.68117 0.316619
294 1 7 15 0 -1.1691 -1.24086 1.65296
295 1 7 14 1 -0.668729 -1.77053 -0.296376
296 1 6 15 1 0.200997 -2.26607 2.72848
297 1 8 14 0 2.72637 -2.60771 2.68966
298 1 9 15 0 -2.37676 0.86789 -0.424926
299 1 9 14 1 -0.30894 0.765927 -1.82968
300 1 8 15 1 -0.919731 2.8798 -2.47732
301 1 10 14 0 -1.04585 0.805913 -1.39576
302 1 11 15 0 0.993803 -0.759499 2.31773
303 1 11 14 1 2.83762 -2.29206 1.55474
304 1 10 15 1 0.260631 1.67393 -0.351756
305 1 12 14 0 1.21128 -0.106966 -0.0937391
306 1 13 15 0 -0.501585 -0.00431002 0.848116
307 1 13 14 1 1.16036 -2.87061 0.900228
308 1 12 15 1 -0.306578 -1.89681 1.04312
309 1 14 14 0 -0.771115 1.82838 -0.203416
310 1 15 15 0 1.55438 0.221818 1.67334
311 1 15 14 1 -2.99504 -1.811 -2.79607
312 1 14 15 1 2.43924 -0.0850206 -0.344063
313 1 16 14 0 -2.60293 -0.517861 -2.39746
314 1 17 15 0 -1.97481 -1.84004 -0.738204
315 1 17 14 1 -1.64176 -0.979534 1.03862
316 1 16 15 1 2.31956 -2.80737 -0.977083
317 1 18 14 0 1.04934 0.82433 -0.427606
318 1 19 15 0 -2.98776 -0.446481 -0.717093
319 1 19 14 1 2.23616 -0.664192 0.766398
320 1 18 15 1 1.19125 1.98551 2.6344
321 1 0 16 0 0.665501 -0.494231 1.47212
322 1 1 17 0 -2.71517 0.79741 0.912905
323 1 1 16 1 0.992992 -2.28743 0.590804
324 1 0 17 1 2.6283 0.912167 -0.48368
325 1 2 16 0 -1.5563 1.35854 -0.900875
326 1 3 17 0 -0.824425 1.30607 0.611575
327 1 3 16 1 0.803543 2.23945 -0.984259
328 1 2 17 1 1.4413 -0.460971 -2.23199
329 1 4 16 0 1.88329 -1.94939 0.650401
330 1 5 17 0 -0.110199 1.13461 -1.01727
331 1 5 16 1 -2.79506 1.24279 1.96217
332 1 4 17 1 -1.12607 1.95062 -2.93459
333 1 6 16 0 -2.21092 -1.10868 2.65459
334 1 7 17 0 1.12741 0.0624798 -2.00689
335 1 7 16 1 -2.44266 0.555115 0.64619
336 1 6 17 1 1.72811 -2.30361 1.0218
337 1 8 16 0 -2.19124 2.89263 1.42536
338 1 9 17 0 -2.07003 1.17508 1.48967
339 1 9 16 1 1.77521 2.73811 0.0338051
340 1 8 17 1 1.25898 2.89059 -2.70102
341 1 10 16 0 2.62867 1.18993 -3.03415
342 1 11 17 0 0.498768 -1.39455 2.00845
343 1 11 16 1 2.12036 1.27864 -0.587042
344 1 10 17 1 -2.26781 -1.24611 -1.98783
345 1 12 16 0 -2.88755 1.82544 -1.12911
346 1 13 17 0 -0.782282 1.70593 -0.967872
347 1 13 16 1 -1.45397 2.85387 -2.65224
348 1 12 17 1 -0.325609 -1.06543 -2.57827
349 1 14 16 0 2.52068 1.3279 -1.51328
350 1 15 17 0 -1.62986 -0.647614 1.06966
351 1 15 16 1 -2.44328 2.27373 0.315448
352 1 14 17 1 -2.71118 1.22156 2.14051
353 1 16 16 0 1.08522 -1.1808 0.664405
354 1 17 17 0 -0.707874 -0.165184 1.60465
355 1 17 16 1 -1.84193 -1.16465 -0.201858
356 1 16 17 1 -2.51573 0.73365 0.22798
357 1 18 16 0 -2.5168 0.998284 0.831497
358 1 19 17 0 0.181977 -1.25844 2.63845
359 1 19 16 1 2.16405 -2.5286 1.1357
360 1 18 17 1 0.284328 0.60388 -2.63516
361 1 0 18 0 2.30738 -1.64177 -2.38032
362 1 1 19 0 1.60028 -2.75342 -1.94467
363 1 1 18 1 2.54673 -2.61532 1.77505
364 1 0 19 1 0.159093 1.35735 -2.67982
365 1 2 18 0 1.92832 -1.46047 1.34928
366 1 3 19 0 1.98791 1.78532 2.23833
367 1 3 18 1 -0.580101 -0.620482 -2.76984
368 1 2 19 1 1.64799 0.479332 -2.44521
369 1 4 18 0 0.180929 -0.724031 -0.565132
370 1 5 19 0 2.94797 0.840434 -2.0493
371 1 5 18 1 -1.30046 -0.586547 -1.1593
372 1 4 19 1 0.134962 1.16052 -1.24221
373 1 6 18 0 -1.73091 1.10936 -1.94811
374 1 7 19 0 -0.756433 0.520482 -0.584373
375 1 7 18 1 0.237696 -2.62516 -0.168826
376 1 6 19 1 2.06735 -0.24596 -0.685792
377 1 8 18 0 1.92208 2.67509 -0.307967
378 1 9 19 0 -0.980451 -1.14821 -2.19339
379 1 9 18 1 -2.83913 -1.33491 0.0627435
380 1 8 19 1 -2.46341 2.82826 2.53363
381 1 10 18 0 1.18072 0.495765 1.46767
382 1 11 19 0 1.10347 3.00125 -0.341061
383 1 11 18 1 -0.549842 -0.288828 -1.14971
384 1 10 19 1 -2.10265 -2.6406 0.528275
385 1 12 18 0 -1.55433 -1.77734 0.136301
386 1 13 19 0 -0.477426 0.645364 -1.21955
387 1 13 18 1 -2.11612 1.04091 -2.74175
388 1 12 19 1 1.87325 -1.31165 -2.28579
389 1 14 18 0 -0.914106 0.615185 -0.200497
390 1 15 19 0 2.21665 -1.94742 -2.42705
391 1 15 18 1 2.8488 -2.04602 -1.8337
392 1 14 19 1 -1.99561 -0.493174 1.08465
393 1 16 18 0 1.46712 -2.14463 -1.29831
394 1 17 19 0 -0.80315 1.90121 1.65686
395 1 17 18 1 -1.76865 2.21784 -1.15586
396 1 16 19 1 -2.65239 -2.87942 -1.82633
397 1 18 18 0 0.856564 -2.09802 1.46728
398 1 19 19 0 0.600818 1.48 1.41765
399 1 19 18 1 1.41986 2.17704 2.94116
400 1 18 19 1 1.46503 -1.00961 -2.32157
401 1 0 0 2 2.7991 -2.29466 0.179273
402 1 1 1 2 1.74723 -1.56447 2.11578
403 1 1 0 3 3.02465 0.914071 1.27219
404 1 0 1 3 1.11647 -2.3013 -2.58247
405 1 2 0 2 -1.53197 -1.19786 -1.68669
406 1 3 1 2 0.137434 0.353752 -1.44265
407 1 3 0 3 -0.402462 2.07439 2.01451
408 1 2 1 3 1.15616 -0.870216 -1.00208
409 1 4 0 2 -1.67383 -1.53863 0.649429
410 1 5 1 2 1.70095 1.08845 -2.46782
411 1 5 0 3 1.32942 0.903066 -2.17845
412 1 4 1 3 0.206214 0.706761 2.09122
413 1 6 0 2 1.74012 -0.0733389 2.37419
414 1 7 1 2 1.8903 0.865235 -2.69258
415 1 7 0 3 -0.658461 1.4006 -1.94652
416 1 6 1 3 1.69521 1.41995 2.71486
417 1 8 0 2 -2.39333 0.786431 -2.09668
418 1 9 1 2 0.947707 -1.04629 -1.58872
419 1 9 0 3 1.02399 -1.67916 -1.42319
420 1 8 1 3 -0.130327 1.66869 2.26383
421 1 10 0 2 -1.45344 -0.311058 0.34881
422 1 11 1 2 1.37066 -1.8738 0.479482
423 1 11 0 3 1.23829 0.0544311 1.87935
424 1 10 1 3 -1.48014 -1.27449 -0.884388
425 1 12 0 2 -2.05863 -0.93022 0.938513
426 1 13 1 2 1.79734 -0.451495 -0.278063
427 1 13 0 3 -0.580362 1.04248 -0.553909
428 1 12 1 3 -2.04963 -0.900019 0.287301
429 1 14 0 2 2.21747 -0.233429 -1.8378
430 1 15 1 2 1.68655 1.02029 1.67182
431 1 15 0 3 1.57986 -1.15616 -2.84678
432 1 14 1 3 -2.81644 -1.08671 2.71372
433 1 16 0 2 2.65301 -1.17241 2.48378
434 1 17 1 2 -1.74244 0.970253 1.6492
435 1 17 0 3 2.69771 -0.164061 2.33676
436 1 16 1 3 2.02528 0.592325 2.82102
437 1 18 0 2 -3.00621 -2.02342 2.96313
438 1 19 1 2 1.54788 -0.0864507 -0.178673
439 1 19 0 3 -0.0693516 -2.10034 -1.2295
440 1 18 1 3 0.144617 0.0780902 0.186369
441 1 0 2 2 -0.00983317 -0.105859 0.348991
442 1 1 3 2 -1.6407 -1.29754 -1.03569
443 1 1 2 3 2.23945 0.0622792 0.672756
444 1 0 3 3 0.477009 1.97783 0.587858
445 1 2 2 2 1.51153 0.0580265 1.80228
446 1 3 3 2 -2.0997 -1.43135 0.736829
447 1 3 2 3 0.378086 -2.78464 -0.132849
448 1 2 3 3 1.68029 -1.29449 1.79896
449 1 4 2 2 2.65721 2.91851 0.668504
450 1 5 3 2 1.63229 2.76856 -2.52306
451 1 5 2 3 -1.33043 -2.13197 -0.351855
452 1 4 3 3 -0.451296 -1.87215 -1.92621
453 1 6 2 2 -1.74878 -2.77365 2.92324
454 1 7 3 2 2.75481 -2.50885 0.314486
455 1 7 2 3 -0.715449 -0.432232 2.80488
456 1 6 3 3 -1.94069 2.87632 -0.433374
457 1 8 2 2 2.92307 -0.110202 -0.0408682
458 1 9 3 2 -1.32207 -0.788219 -2.38805
459 1 9 2 3 -1.13014 0.0969135 1.92288
460 1 8 3 3 -2.11602 2.69265 -1.71565
461 1 10 2 2 -2.54819 -0.251292 0.461179
462 1 11 3 2 2.20419 0.392879 2.70488
463 1 11 2 3 -0.579092 -1.80884 -2.81449
464 1 10 3 3 1.41165 -2.63753 -2.37953
465 1 12 2 2 2.8163 2.36534 -2.77758
466 1 13 3 2 -1.4345 -2.62072 1.87267
467 1 13 2 3 1.18308 -2.2193 2.22729
468 1 12 3 3 1.59163 -2.94137 -2.34968
469 1 14 2 2 2.35352 -0.777935 1.03898
470 1 15 3 2 2.24288 -2.6977 2.85782
471 1 15 2 3 -1.68099 -0.881494 -2.9858
472 1 14 3 3 2.25508 2.57569 -0.966483
473 1 16 2 2 -2.31626 1.27852 -2.54321
474 1 17 3 2 -1.2152 -1.58409 -1.0013
475 1 17 2 3 -0.555549 0.591221 2.42195
476 1 16 3 3 -0.186029 -2.7383 -1.95732
477 1 18 2 2 1.74782 2.30733 2.31856
478 1 19 3 2 -1.3777 1.95895 -2.0639
479 1 19 2 3 1.4252 1.25486 -0.911454
480 1 18 3 3 2.89088 -2.73869 -2.44415
481 1 0 4 2 -0.17505 0.267402 -0.617822
482 1 1 5 2 0.750897 0.800222 -0.2333
483 1 1 4 3 1.48799 -2.2908 -1.47449
484 1 0 5 3 2.91625 0.239181 -2.98804
485 1 2 4 2 0.925251 2.73259 -2.0124
486 1 3 5 2 1.6157 2.21967 -0.62204
487 1 3 4 3 2.46661 0.0766522 0.219454
488 1 2 5 3 -0.601823 -2.66411 -1.31751
489 1 4 4 2 -2.85909 2.0003 -2.78942
490 1 5 5 2 -0.654512 1.21332 2.81505
491 1 5 4 3 -0.487067 1.979 2.24047
492 1 4 5 3 -0.895239 -2.95365 -3.041
493 1 6 4 2 0.207128 -2.08512 0.448515
494 1 7 5 2 1.12244 1.23018 1.85321
495 1 7 4 3 0.805059 -2.53054 -1.24997
496 1 6 5 3 0.923704 0.931202 -1.23645
497 1 8 4 2 -1.85122 -0.0888546 1.77305
498 1 9 5 2 2.867 1.29716 2.05013
499 1 9 4 3 0.895537 -0.538687 -1.49794
500 1 8 5 3 2.04145 0.0376937 -1.1034
501 1 10 4 2 1.75662 -1.12197 -2.90797
502 1 11 5 2 -2.51874 -1.46954 0.151489
503 1 11 4 3 0.659146 1.60462 2.40566
504 1 10 5 3 -1.69331 -2.14111 -2.62121
505 1 12 4 2 0.830074 0.410687 -0.511474
506 1 13 5 2 -2.80037 2.80036 -0.392763
507 1 13 4 3 1.75732 -1.35752 1.24661
508 1 12 5 3 0.729119 -2.19042 -2.55784
509 1 14 4 2 0.908647 1.98927 -0.68109
510 1 15 5 2 2.29399 -2.93783 2.71872
511 1 15 4 3 2.03522 -1.71481 -1.70415
512 1 14 5 3 -2.86803 3.02329 1.08033
513 1 16 4 2 1.45429 0.0125591 -0.00499987
514 1 17 5 2 2.5176 -2.11732 -2.22293
515 1 17 4 3 2.92562 0.356173 2.93503
516 1 16 5 3 1.24487 1.795 1.45323
517 1 18 4 2 0.399357 -2.25248 1.24365
518 1 19 5 2 -0.620104 -1.34439 -1.8845
519 1 19 4 3 -2.74167 -2.94472 1.73927
520 1 18 5 3 -2.20319 1.76347 -2.05567
521 1 0 6 2 0.446839 -2.89934 2.19859
522 1 1 7 2 -2.91597 2.07975 1.29945
523 1 1 6 3 -0.601265 0.662603 -1.91025
524 1 0 7 3 0.163326 -0.111171 1.83894
525 1 2 6 2 -3.00312 1.55923 1.99474
526 1 3 7 2 1.63098 -1.074 -1.49634
527 1 3 6 3 -1.21897 1.54568 -1.97152
528 1 2 7 3 -1.04084 0.398514 0.617513
529 1 4 6 2 -2.25965 2.84964 -1.16643
530 1 5 7 2 1.27444 2.63136 2.91687
531 1 5 6 3 -1.39179 1.20142 2.38241
532 1 4 7 3 0.807708 -0.352485 -0.11083
533 1 6 6 2 2.67735 2.46356 2.22564
534 1 7 7 2 -2.02973 0.718554 0.627457
535 1 7 6 3 1.50213 -0.657844 -1.44894
536 1 6 7 3 2.78101 2.23974 -2.16763
537 1 8 6 2 0.524521 1.8493 0.40911
538 1 9 7 2 -1.65647 -0.242861 2.99066
539 1 9 6 3 -1.60955 1.87568 2.24953
540 1 8 7 3 0.194068 2.28935 2.6348
541 1 10 6 2 1.44682 1.63136 -1.87592
542 1 11 7 2 2.30966 0.359616 0.299924
543 1 11 6 3 2.61401 2.85123 1.37954
544 1 10 7 3 2.31474 0.88328 -1.9464
545 1 12 6 2 -2.38292 0.28217 -0.47448
546 1 13 7 2 1.81355 -0.296772 -1.56407
547 1 13 6 3 -2.06329 -0.603473 -1.26262
548 1 12 7 3 -0.0136605 2.12377 -3.05241
549 1 14 6 2 2.09986 1.65385 0.957066
550 1 15 7 2 -1.01506 -2.04062 -1.80001
551 1 15 6 3 1.54422 -1.19084 1.24068
552 1 14 7 3 -2.04703 0.387984 -0.898558
553 1 16 6 2 1.80724 2.58236 2.27173
554 1 17 7 2 -1.86128 0.311411 0.881879
555 1 17 6 3 -0.119267 -0.0113278 -2.14106
556 1 16 7 3 -0.62922 2.75269 -2.90158
557 1 18 6 2 1.95355 -0.842171 -1.5933
558 1 19 7 2 2.73971 -2.26843 -0.721356
559 1 19 6 3 -2.84519 -0.327521 1.98448
560 1 18 7 3 -1.37038 -2.0681 2.1226
561 1 0 8 2 2.723 1.38109 2.95869
562 1 1 9 2 -0.472213 -2.49921 -1.02725
563 1 1 8 3 -1.10764 -2.9147 -1.84776
564 1 0 9 3 -2.26583 1.868 0.0700703
565 1 2 8 2 -0.330771 2.93757 0.357679
566 1 3 9 2 -0.827641 1.71125 -2.38016
567 1 3 8 3 -1.77375 1.1632 1.49453
568 1 2 9 3 -1.30074 0.633947 0.517581
569 1 4 8 2 0.212053 2.03902 0.418963
570 1 5 9 2 0.580095 -1.93894 0.942482
571 1 5 8 3 1.94149 2.08942 0.45388
572 1 4 9 3 0.536986 -0.412724 -2.10923
573 1 6 8 2 1.86579 0.419473 1.93996
574 1 7 9 2 0.667845 2.59667 0.651734
575 1 7 8 3 -1.89957 -1.93409 -2.3664
576 1 6 9 3 -0.370688 -2.40382 -1.19809
577 1 8 8 2 1.60923 2.34279 -0.602943
578 1 9 9 2 2.75722 1.6188 -1.18154
579 1 9 8 3 1.44895 0.986833 1.98145
580 1 8 9 3 2.09525 2.72864 -1.83436
581 1 10 8 2 -1.0274 2.3264 2.22669
582 1 11 9 2 -2.44159 0.411611 2.90856
583 1 11 8 3 -1.94834 1.3268 -1.88275
584 1 10 9 3 2.46769 0.170246 0.120349
585 1 12 8 2 -2.36723 -2.29364 -0.800161
586 1 13 9 2 -2.26218 2.62017 2.41371
587 1 13 8 3 0.482879 -2.21105 1.70447
588 1 12 9 3 -0.181564 -0.296007 -0.8096
589 1 14 8 2 2.45756 -0.741036 -1.99374
590 1 15 9 2 0.693312 1.0404 0.731357
591 1 15 8 3 -0.837829 -0.107086 -2.11237
592 1 14 9 3 -2.46419 1.81519 2.07955
593 1 16 8 2 -0.863918 -2.9381 -1.91292
594 1 17 9 2 -2.26703 -0.241906 0.901169
595 1 17 8 3 -2.64714 0.615105 -1.54505
596 1 16 9 3 2.91877 0.124766 -1.89367
597 1 18 8 2 0.471323 -2.81526 -0.531833
598 1 19 9 2 -0.088315 -0.143137 -2.96971
599 1 19 8 3 0.511212 2.03948 2.15024
600 1 18 9 3 1.37196 1.96374 -0.202396
601 1 0 10 2 0.557093 -1.30536 0.635159
602 1 1 11 2 -2.15922 2.58564 2.86646
603 1 1 10 3 -1.58056 -0.971611 1.08798
604 1 0 11 3 2.92596 -0.039331 -0.85138
605 1 2 10 2 2.11119 -1.48797 -0.989604
606 1 3 11 2 2.36571 -1.55599 -0.551212
607 1 3 10 3 0.929315 -1.58443 -0.66475
608 1 2 11 3 -1.39502 1.36685 -0.46304
609 1 4 10 2 0.470634 -2.30979 -0.0554058
610 1 5 11 2 2.41383 2.42769 -1.6323
611 1 5 10 3 0.669284 2.58849 2.38652
612 1 4 11 3 -2.67878 1.24485 0.277293
613 1 6 10 2 -2.62463 -2.19014 2.1971
614 1 7 11 2 2.33329 -1.92647 -1.32034
615 1 7 10 3 -2.00563 0.497257 2.34415
616 1 6 11 3 -0.858852 -2.50564 -0.176688
617 1 8 10 2 -3.00351 1.06042 -1.61659
618 1 9 11 2 -1.42631 1.80726 1.9022
619 1 9 10 3 1.27272 -2.08302 -0.412891
620 1 8 11 3 2.29902 2.99805 0.485422
621 1 10 10 2 -1.77665 0.888523 1.4662
622 1 11 11 2 0.558319 1.15117 -1.06352
623 1 11 10 3 0.344458 0.787508 -2.1515
624 1 10 11 3 -0.600056 2.83293 2.35448
625 1 12 10 2 -2.64876 -2.4018 2.5981
626 1 13 11 2 1.67228 -2.72974 2.9082
627 1 13 10 3 -1.9318 0.896512 2.63953
628 1 12 11 3 2.25949 -1.8413 2.2056
629 1 14 10 2 -0.02676 -0.222447 1.22544
630 1 15 11 2 1.92735 0.389221 1.7373
631 1 15 10 3 0.916923 1.92379 -0.0827464
632 1 14 11 3 2.73819 2.49256 -0.40833
633 1 16 10 2 0.304298 -2.58809 -0.377104
634 1 17 11 2 -1.27975 2.49409 1.09497
635 1 17 10 3 -0.655444 -2.36123 0.705711
636 1 16 11 3 -2.28178 -0.0123404 -1.00806
637 1 18 10 2 0.821118 1.15803 -0.764924
638 1 19 11 2 -2.98217 2.79507 1.39713
639 1 19 10 3 1.3651 1.52412 -1.2293
640 1 18 11 3 -2.61609 2.04302 1.20617
641 1 0 12 2 -1.21621 -0.479267 -1.15424
642 1 1 13 2 0.359731 -2.69838 -2.49263
643 1 1 12 3 1.75274 0.303267 -2.87515
644 1 0 13 3 -1.60744 0.938561 1.43596
645 1 2 12 2 0.673727 -1.38707 0.689535
646 1 3 13 2 -1.88488 2.99015 0.755607
647 1 3 12 3 1.35007 -2.94008 1.16558
648 1 2 13 3 0.182092 0.659611 2.26397
649 1 4 12 2 0.915083 1.24445 -0.455872
650 1 5 13 2 -0.0675555 -2.16616 -0.122048
651 1 5 12 3 1.70789 2.80988 2.16752
652 1 4 13 3 1.35917 -1.23267 0.132688
653 1 6 12 2 -0.699197 0.448229 1.20511
654 1 7 13 2 -0.960051 2.87563 0.011622
655 1 7 12 3 -2.4922 2.94861 -1.6825
656 1 6 13 3 -2.06459 1.72421 -2.29872
657 1 8 12 2 -0.350787 -0.695703 -2.44342
658 1 9 13 2 -0.015722 -2.2722 2.58637
659 1 9 12 3 -1.88526 2.60451 -0.584886
660 1 8 13 3 -2.33212 0.992859 0.41164
661 1 10 12 2 -1.4862 -0.327236 0.716727
662 1 11 13 2 1.34109 -2.71462 2.86061
663 1 11 12 3 2.86668 1.96665 0.255827
664 1 10 13 3 -0.379832 1.22962 -1.52834
665 1 12 12 2 -0.542952 0.552206 0.154489
666 1 13 13 2 2.68188 -0.0766263 1.57802
667 1 13 12 3 -1.7893 0.0605916 2.56092
668 1 12 13 3 -0.0239447 -1.30851 2.04106
669 1 14 12 2 -0.38271 1.26246 -0.307866
670 1 15 13 2 0.716884 -2.11339 -2.69456
671 1 15 12 3 2.33603 1.74393 2.32003
672 1 14 13 3 -0.846573 -1.84931 0.720725
673 1 16 12 2 1.98036 1.9991 1.22831
674 1 17 13 2 1.84082 -1.82263 1.3461
675 1 17 12 3 2.92151 -2.23392 -1.55033
676 1 16 13 3 -1.19154 2.76347 2.75043
677 1 18 12 2 2.56668 -0.0905483 -2.49132
678 1 19 13 2 -0.440982 2.06786 1.13738
679 1 19 12 3 -1.68481 1.53068 0.136275
680 1 18 13 3 -0.910899 0.0589947 -0.0767292
681 1 0 14 2 1.01013 1.33562 1.1766
682 1 1 15 2 -2.03789 2.75659 2.0748
683 1 1 14 3 -1.99575 -2.8821 1.38794
684 1 0 15 3 -1.75719 1.24059 1.27702
685 1 2 14 2 -2.44883 -0.239717 1.37792
686 1 3 15 2 -0.706048 0.270143 -2.94867
687 1 3 14 3 -2.87356 0.92788 -2.60324
688 1 2 15 3 0.336063 -1.16052 2.58494
689 1 4 14 2 -1.61243 1.86623 0.667142
690 1 5 15 2 2.93293 2.19782 1.23096
691 1 5 14 3 -2.10914 -2.66418 -2.50249
692 1 4 15 3 -0.448642 0.381298 1.6825
693 1 6 14 2 -0.456957 -0.2066 1.33585
694 1 7 15 2 0.0533938 -2.33657 -2.32782
695 1 7 14 3 0.58116 -2.19912 2.54468
696 1 6 15 3 -0.594525 -1.01997 -0.868302
697 1 8 14 2 2.07729 -2.63857 -1.73621
698 1 9 15 2 2.86131 2.49727 -0.0420131
699 1 9 14 3 -2.41321 -0.538125 1.90818
700 1 8 15 3 -1.03883 -2.08205 -2.26936
701 1 10 14 2 -2.98931 -2.29342 2.846
702 1 11 15 2 -0.579241 1.73803 0.00263505
703 1 11 14 3 -2.27304 1.65151 -1.99599
704 1 10 15 3 -0.760389 0.574979 1.72129
705 1 12 14 2 -1.92019 2.53369 1.03565
706 1 13 15 2 0.801849 -2.03061 -2.98857
707 1 13 14 3 -1.85779 -1.60374 1.64918
708 1 12 15 3 2.28815 1.83061 0.942535
709 1 14 14 2 2.84215 1.17416 -1.88628
710 1 15 15 2 -2.33392 0.996167 1.5436
711 1 15 14 3 0.586718 0.461311 -2.79371
712 1 14 15 3 -0.185996 -2.18616 2.46323
713 1 16 14 2 -2.13625 1.46351 2.71782
714 1 17 15 2 -0.989791 -0.822917 1.3401
715 1 17 14 3 -1.01864 -1.65442 2.92591
716 1 16 15 3 -0.770286 -2.40026 -1.7737
717 1 18 14 2 2.01925 2.10829 -3.02702
718 1 19 15 2 -0.696071 -1.45971 2.06885
719 1 19 14 3 0.80103 2.36703 1.35506
720 1 18 15 3 2.24785 2.09029 -3.05129
721 1 0 16 2 2.80469 0.887795 1.3305
722 1 1 17 2 0.903744 -1.76831 0.764386
723 1 1 16 3 -2.36225 2.71606 -1.5063
724 1 0 17 3 0.675295 0.758666 -2.85273
725 1 2 16 2 0.141437 1.08608 0.0749241
726 1 3 17 2 2.59059 2.54608 -2.45471
727 1 3 16 3 -2.26239 -0.940993 1.39832
728 1 2 17 3 -2.80042 1.87593 0.32906
729 1 4 16 2 2.19841 0.0469479 -2.87988
730 1 5 17 2 -2.42461 1.40963 -1.32961
731 1 5 16 3 -0.449293 1.53721 0.967326
732 1 4 17 3 2.01315 2.47442 -2.82802
733 1 6 16 2 -2.06725 -0.548124 -2.78281
734 1 7 17 2 1.46417 2.77925 1.72071
735 1 7 16 3 0.478988 -1.05772 -0.0172331
736 1 6 17 3 2.63104 -1.33098 -0.429536
737 1 8 16 2 0.87694 1.53008 2.09132
738 1 9 17 2 -2.64429 0.0811788 -2.35937
739 1 9 16 3 2.77513 0.154188 2.51092
740 1 8 17 3 0.659197 2.46668 0.260355
741 1 10 16 2 -2.93432 2.24944 -2.45447
742 1 11 17 2 1.74967 -2.93379 -2.13197
743 1 11 16 3 0.775886 -2.74086 -2.47824
744 1 10 17 3 1.60639 -3.02669 -2.4728
745 1 12 16 2 2.3571 -1.02861 -0.896759
746 1 13 17 2 1.78887 2.48494 -1.51041
747 1 13 16 3 -1.74674 1.28075 -1.39693
748 1 12 17 3 -0.406839 1.11828 2.76351
749 1 14 16 2 -1.53187 0.571078 2.70363
750 1 15 17 2 2.51174 2.3766 -1.12245
751 1 15 16 3 2.25591 -1.56387 0.0200458
752 1 14 17 3 -0.0748987 1.47629 -0.375213
753 1 16 16 2 0.250195 1.73752 -2.52248
754 1 17 17 2 2.38368 -2.05525 0.293575
755 1 17 16 3 -1.25145 0.147054 -2.42879
756 1 16 17 3 -2.17731 1.19953 0.950528
757 1 18 16 2 -1.97671 2.40955 2.08023
758 1 19 17 2 -1.4952 -0.364493 -2.2571
759 1 19 16 3 -2.61975 1.06748 2.10713
760 1 18 17 3 2.86919 1.93046 -2.88257
761 1 0 18 2 0.739321 -0.143275 0.747733
762 1 1 19 2 2.11287 2.53187 0.738361